LAMMPS data file via write_data, version 11 Aug 2017, timestep = 1000

3097 atoms
2 atom types

0.0000000000000000e+00 7.9723551628805012e+01 xlo xhi
0.0000000000000000e+00 4.8738435450303001e+01 ylo yhi
0.0000000000000000e+00 9.5251469060520009e+00 zlo zhi

Masses

1 12.0107
2 55.845

Atoms # atomic

1 2 1.4602435897100394e+00 3.9636102823260884e+00 1.6352882161902265e+00 0 0 0
3 2 2.0777603137793998e+00 1.9346667267405493e+00 3.6020140064044920e-01 0 0 0
4 2 2.6981874602232976e+00 3.9634109919400173e+00 8.6111719522677905e+00 0 0 -1
2734 2 8.4078489315020133e-01 1.9349484995610720e+00 2.9097798577154896e+00 1 0 0
2 2 4.5517987368272941e+00 1.9342648801274966e+00 2.3501144898513147e-02 0 0 0
5 2 3.9365442090650440e+00 3.9632110909156006e+00 1.2993802001600501e+00 0 0 0
6 2 5.1740683416573354e+00 3.9630939508864556e+00 8.2751409861559821e+00 0 0 -1
7 2 3.3149795573481500e+00 1.9344635578129155e+00 2.5731372991835690e+00 0 0 0
10 2 7.0257820140832541e+00 1.9339182844351288e+00 9.2118260024825904e+00 0 0 -1
11 2 6.4125304168350530e+00 3.9628506722493722e+00 9.6336009272185896e-01 0 0 0
13 2 5.7891163451416432e+00 1.9341235638828125e+00 2.2363779039171163e+00 0 0 0
8 2 8.2633301313792700e+00 1.9337019153859614e+00 1.8995439487008050e+00 0 0 0
9 2 9.4999099430656457e+00 1.9333408066189985e+00 8.8748385965698251e+00 0 0 -1
12 2 8.8880628192849329e+00 3.9621678443802884e+00 6.2724238807758281e-01 0 0 0
14 2 7.6519854737485229e+00 3.9629758004900077e+00 3.1759454520761623e+00 0 0 0
332 2 1.0737803098073698e+01 1.9327046271666610e+00 1.5626864974872654e+00 0 0 0
336 2 1.0129046912551827e+01 3.9625664040677941e+00 2.8389311235811996e+00 0 0 0
333 2 1.1974913582320513e+01 1.9320860832218243e+00 8.5381259190996595e+00 0 0 -1
334 2 1.3213375559040363e+01 1.9299503897178558e+00 1.2277704863638290e+00 0 0 0
335 2 1.1362791033751163e+01 3.9601532488362996e+00 2.9078165868838896e-01 0 0 0
337 2 1.2606827452583103e+01 3.9615002385831306e+00 2.4996194467562241e+00 0 0 0
339 2 1.5090288665032556e+01 3.9593153116559598e+00 2.1669004415195325e+00 0 0 0
341 2 1.3837882570387512e+01 3.9534971134923564e+00 9.4829841296472992e+00 0 0 -1
343 2 1.4455942399118049e+01 1.9321054086309701e+00 3.4377888829297429e+00 0 0 0
15 2 1.4640047633217572e+00 8.0186762553056639e+00 1.6363508954649464e+00 0 0 0
17 2 2.0811973758074962e+00 5.9914622865573035e+00 3.6134174317659229e-01 0 0 0
18 2 2.7039356031274759e+00 8.0185005612460927e+00 8.6129219813890376e+00 0 0 -1
16 2 4.5591238871128796e+00 5.9912330833009815e+00 2.6155297553336669e-02 0 0 0
19 2 3.9446198665534435e+00 8.0184784155303426e+00 1.3017677902436087e+00 0 0 0
20 2 5.1842473730771399e+00 8.0183085737431039e+00 8.2783510236096767e+00 0 0 -1
21 2 3.3209909349636191e+00 5.9913515746173767e+00 2.5749073985227611e+00 0 0 0
24 2 7.0359005714381606e+00 5.9911084461078365e+00 9.2161195235013089e+00 0 0 -1
25 2 6.4256982544275143e+00 8.0184691439590985e+00 9.6724045173045148e-01 0 0 0
27 2 5.7996083914642851e+00 5.9912247043636180e+00 2.2395220458005047e+00 0 0 0
22 2 8.2782560042917890e+00 5.9911924112987656e+00 1.9038863082495976e+00 0 0 0
23 2 9.5095210843090836e+00 5.9908846637028539e+00 8.8809981184314033e+00 0 0 -1
26 2 8.9079245853898534e+00 8.0186900875428666e+00 6.3287589343195494e-01 0 0 0
28 2 7.6671477970335822e+00 8.0181638074000876e+00 3.1808317210801955e+00 0 0 0
365 2 1.0756923358186127e+01 5.9910810300734365e+00 1.5674611886008616e+00 0 0 0
369 2 1.0150515246201689e+01 8.0179789378440205e+00 2.8459967538156152e+00 0 0 0
366 2 1.1974083897228207e+01 5.9898177568725446e+00 8.5459797722288293e+00 0 0 -1
367 2 1.3235327297414209e+01 5.9901914213673138e+00 1.2272974309931257e+00 0 0 0
368 2 1.1392919749183172e+01 8.0191697224411218e+00 2.9849445357963444e-01 0 0 0
370 2 1.2636787695564331e+01 8.0177322925574313e+00 2.5097150120405076e+00 0 0 0
372 2 1.5132393093136470e+01 8.0174489341699324e+00 2.1773151853755048e+00 0 0 0
374 2 1.3887043849736951e+01 8.0180667820205365e+00 9.4915704496423352e+00 0 0 -1
376 2 1.4476018594436489e+01 5.9917919862249054e+00 3.4251707838316592e+00 0 0 0
29 2 1.4674058773207215e+00 1.2071273390404198e+01 1.6374726436712117e+00 0 0 0
31 2 2.0864370121627092e+00 1.0045041424152853e+01 3.6278699896484567e-01 0 0 0
32 2 2.7084779361900408e+00 1.2071018403820531e+01 8.6143306729549476e+00 0 0 -1
30 2 4.5685553120688303e+00 1.0044720669396018e+01 2.8680534286269075e-02 0 0 0
33 2 3.9496944626356125e+00 1.2070774534263712e+01 1.3035075242836418e+00 0 0 0
34 2 5.1911015760830290e+00 1.2070430159167028e+01 8.2804771473261543e+00 0 0 -1
35 2 3.3274671179784878e+00 1.0044865379660893e+01 2.5769743202488455e+00 0 0 0
38 2 7.0516560886648394e+00 1.0044383731438336e+01 9.2199613399650548e+00 0 0 -1
39 2 6.4327395729068497e+00 1.2070129107624684e+01 9.6981963699632634e-01 0 0 0
41 2 5.8099599490391576e+00 1.0044540625613605e+01 2.2429430246783140e+00 0 0 0
36 2 8.2936420730940199e+00 1.0044166626902328e+01 1.9092662624295214e+00 0 0 0
40 2 8.9170133014102593e+00 1.2069217779490771e+01 6.3667626916289854e-01 0 0 0
42 2 7.6743923721599057e+00 1.2069664815089469e+01 3.1845173108279687e+00 0 0 0
399 2 1.0779237311183646e+01 1.0043594037848875e+01 1.5761873589090121e+00 0 0 0
404 2 1.0159090142269003e+01 1.2068586297853370e+01 2.8519737816642379e+00 0 0 0
529 2 9.5366492738140582e+00 1.0043848115689766e+01 8.8865330738640900e+00 0 0 -1
400 2 1.2025337605994574e+01 1.0042239412063847e+01 8.5542804003172748e+00 0 0 -1
401 2 1.3267980498830491e+01 1.0042220526206878e+01 1.2450744829544453e+00 0 0 0
402 2 1.1403016455397548e+01 1.2067769813655987e+01 3.0458349252466810e-01 0 0 0
403 2 1.3890541372726249e+01 1.2065217332769150e+01 9.4986474180391482e+00 0 0 -1
405 2 1.2645287902636877e+01 1.2067162820221803e+01 2.5213045985781837e+00 0 0 0
407 2 1.5131592174227267e+01 1.2066236102638616e+01 2.1927810285518126e+00 0 0 0
410 2 1.4511457003612506e+01 1.0040679856686127e+01 3.4639091675014746e+00 0 0 0
43 2 1.4603472443768433e+00 3.9636482562311670e+00 6.3977531435185249e+00 0 0 0
46 2 2.0779673709924729e+00 1.9347290675073228e+00 5.1226954270052723e+00 0 0 0
47 2 2.6987636388281215e+00 3.9634499224238824e+00 3.8485099957777904e+00 0 0 0
2782 2 8.4071700270044691e-01 1.9349723501287415e+00 7.6723228246798492e+00 1 0 0
44 2 3.3148680973225275e+00 1.9345238698933576e+00 7.3356356520509278e+00 0 0 0
45 2 4.5522195945238773e+00 1.9344044140354277e+00 4.7859145927400775e+00 0 0 0
48 2 3.9368105534532929e+00 3.9633080806492691e+00 6.0617041157489471e+00 0 0 0
49 2 5.1753225401955953e+00 3.9631869763365013e+00 3.5123862533192103e+00 0 0 0
50 2 5.7889656096818891e+00 1.9342775774473930e+00 6.9987698591433691e+00 0 0 0
54 2 7.0266042646245950e+00 1.9342295146669939e+00 4.4489295171835508e+00 0 0 0
55 2 6.4131871569187000e+00 3.9631022646100282e+00 5.7253569576272350e+00 0 0 0
51 2 7.6493170651335758e+00 3.9627443478763826e+00 7.9388869517129921e+00 0 0 0
52 2 8.2632210210479453e+00 1.9341067756623562e+00 6.6616488425420162e+00 0 0 0
53 2 9.5014597308392048e+00 1.9340364630424183e+00 4.1117175812779019e+00 0 0 0
56 2 8.8896227553574843e+00 3.9628447150711628e+00 5.3884440372359643e+00 0 0 0
432 2 1.0123584411359358e+01 3.9619471162124711e+00 7.6021118336228719e+00 0 0 0
434 2 1.0738175891427892e+01 1.9338754078072211e+00 6.3243034380807845e+00 0 0 0
433 2 1.2597225818035170e+01 3.9600011025156094e+00 7.2651164533080523e+00 0 0 0
435 2 1.1977327223394543e+01 1.9335865955377509e+00 3.7740225053386340e+00 0 0 0
436 2 1.3214772661342268e+01 1.9334638249981644e+00 5.9861859102579613e+00 0 0 0
437 2 1.1366525209338006e+01 3.9621649845230817e+00 5.0505076868777747e+00 0 0 0
438 2 1.4452242919352395e+01 1.9305027109660153e+00 8.2034091749213669e+00 0 0 0
441 2 1.5070670255557085e+01 3.9500931044547798e+00 6.9184341439291170e+00 0 0 0
443 2 1.3844054228607874e+01 3.9611905179509130e+00 4.7066713514388363e+00 0 0 0
57 2 1.4639633040783773e+00 8.0186125753413879e+00 6.3988550635791102e+00 0 0 0
60 2 2.0817322413766326e+00 5.9914587514389499e+00 5.1237432944097066e+00 0 0 0
61 2 2.7044489976604673e+00 8.0184957289153669e+00 3.8502483277965487e+00 0 0 0
58 2 3.3205824955709060e+00 5.9913020437483686e+00 7.3374324107180060e+00 0 0 0
59 2 4.5604686168573698e+00 5.9912248280892584e+00 4.7883308374377851e+00 0 0 0
62 2 3.9445200831368488e+00 8.0183223593414237e+00 6.0641839511125646e+00 0 0 0
63 2 5.1853947697587621e+00 8.0182977552282892e+00 3.5155608479576546e+00 0 0 0
64 2 5.7987746678950973e+00 5.9911018176219670e+00 7.0019624068413631e+00 0 0 0
68 2 7.0393396890355078e+00 5.9910916356974449e+00 4.4526003398196803e+00 0 0 0
69 2 6.4254133315060056e+00 8.0180823331900264e+00 5.7294572346795221e+00 0 0 0
65 2 7.6646229839228237e+00 8.0181769845474182e+00 7.9438735990420630e+00 0 0 0
66 2 8.2765360381705264e+00 5.9908731972632419e+00 6.6660773401345343e+00 0 0 0
70 2 8.9070045900898354e+00 8.0177280995963400e+00 5.3946279937364636e+00 0 0 0
465 2 1.0145109496751791e+01 8.0178567141143180e+00 7.6094770966283249e+00 0 0 0
467 2 1.0753325924720126e+01 5.9901944894452415e+00 6.3290564294048686e+00 0 0 0
530 2 9.5185286862291338e+00 5.9908926807814105e+00 4.1161681232452842e+00 0 0 0
466 2 1.2626502337309502e+01 8.0158339451450118e+00 7.2758026571386418e+00 0 0 0
468 2 1.1998088425162708e+01 5.9904995054249577e+00 3.7776396741053997e+00 0 0 0
469 2 1.3227777687904419e+01 5.9873710662851822e+00 5.9884837227387280e+00 0 0 0
470 2 1.1389908354636828e+01 8.0168616540683448e+00 5.0596994982931642e+00 0 0 0
471 2 1.4413778551429814e+01 5.9844834091271730e+00 8.2159745367483481e+00 0 0 0
474 2 1.5109011941543105e+01 8.0016425819246333e+00 6.9396687353473805e+00 0 0 0
476 2 1.3874431859066451e+01 8.0158618883085051e+00 4.7224357815602973e+00 0 0 0
71 2 1.4673506747452085e+00 1.2071243189759475e+01 6.4000484652014382e+00 0 0 0
74 2 2.0864206260713187e+00 1.0044984564404443e+01 5.1253178703648254e+00 0 0 0
75 2 2.7084279713941326e+00 1.2071016347968937e+01 3.8517600194403911e+00 0 0 0
67 2 6.4324990577691263e+00 1.2069997643337432e+01 5.7324275110135803e+00 0 0 0
72 2 3.3272338970502626e+00 1.0044803111305935e+01 7.3395549457202858e+00 0 0 0
73 2 4.5684646732171723e+00 1.0044596011187384e+01 4.7911723277864482e+00 0 0 0
76 2 3.9495790409831333e+00 1.2070710792054097e+01 6.0660914269383870e+00 0 0 0
77 2 5.1909630452327820e+00 1.2070437533389653e+01 3.5179182258234456e+00 0 0 0
78 2 5.8095006836460845e+00 1.0044390193130862e+01 7.0055287388991152e+00 0 0 0
81 2 7.0513059854255289e+00 1.0044122043749553e+01 4.4572355488554303e+00 0 0 0
37 2 8.9165266630442250e+00 1.2068962236949103e+01 5.3994055568354078e+00 0 0 0
79 2 7.6747408383638156e+00 1.2069610512417663e+01 7.9470283894376861e+00 0 0 0
80 2 8.2927785124351026e+00 1.0043788354890394e+01 6.6718414775943193e+00 0 0 0
498 2 1.0159920230962539e+01 1.2068329147741562e+01 7.6144218224278877e+00 0 0 0
500 2 1.0777838227803798e+01 1.0042552807237223e+01 6.3390138606311615e+00 0 0 0
531 2 9.5355150780649112e+00 1.0043375253802678e+01 4.1237947483309005e+00 0 0 0
499 2 1.2646838004749450e+01 1.2066242285972894e+01 7.2834604765346702e+00 0 0 0
501 2 1.2021735338319470e+01 1.0042105307735513e+01 3.7912985471485960e+00 0 0 0
502 2 1.3265585327779393e+01 1.0039523127269716e+01 6.0084788303835808e+00 0 0 0
503 2 1.1401967484319163e+01 1.2067401925314959e+01 5.0677091152858704e+00 0 0 0
504 2 1.3888697715278953e+01 1.2065703353263645e+01 4.7397256215774570e+00 0 0 0
505 2 1.4519782828301960e+01 1.0035084572270090e+01 8.2232011669789475e+00 0 0 0
508 2 1.5134576471597436e+01 1.2067060138845338e+01 6.9582120774370253e+00 0 0 0
2750 2 8.4231932185217595e-01 5.9916526967039001e+00 2.9101399985379293e+00 1 0 0
2766 2 8.4560004259039545e-01 1.0045207381515235e+01 2.9111443993828066e+00 1 0 0
2798 2 8.4212048459860123e-01 5.9916321802838404e+00 7.6726971118459124e+00 1 0 0
2754 2 8.4548543554524713e-01 1.0045181190791414e+01 7.6737222225839359e+00 1 0 0
338 2 1.5691103492526407e+01 1.9217563645714042e+00 9.0106367514287622e-01 0 0 0
440 2 1.5696062831973771e+01 1.9319705212339278e+00 5.6471659878482541e+00 0 0 0
371 2 1.5718046949070331e+01 5.9835049363877921e+00 8.9621699205880223e-01 0 0 0
406 2 1.5757805295650055e+01 1.0035967791484307e+01 9.1230224690621953e-01 0 0 0
473 2 1.5690559082870056e+01 5.9860034203987187e+00 5.6021061392481091e+00 0 0 0
507 2 1.5757075146671594e+01 1.0035802178353823e+01 5.6934578065675323e+00 0 0 0
2735 2 2.2213196421168785e-01 3.9638987140391952e+00 4.1844224829465144e+00 1 0 0
2751 2 2.2382573214373008e-01 8.0188166422395639e+00 4.1848713943645448e+00 1 0 0
2767 2 2.2638798617778855e-01 1.2071475653872005e+01 4.1857804009569728e+00 1 0 0
2738 2 2.2640423853586863e-01 1.2071478459017495e+01 8.9483545021101278e+00 1 0 0
2783 2 2.2187057357965712e-01 3.9638819223406383e+00 8.9470389439821645e+00 1 0 0
2799 2 2.2359780546825908e-01 8.0188188263248747e+00 8.9474913786465091e+00 1 0 0
82 2 1.4680381354554093e+00 1.6124156167066023e+01 1.6379500817341595e+00 0 0 0
84 2 2.0884353749878741e+00 1.4097354016157476e+01 3.6362130063006587e-01 0 0 0
85 2 2.7081009210556122e+00 1.6123822690350050e+01 8.6145621244387627e+00 0 0 -1
83 2 4.5702067024814585e+00 1.4096648733819590e+01 2.9601143610368499e-02 0 0 0
86 2 3.9482297969488487e+00 1.6123419245216901e+01 1.3035037275248813e+00 0 0 0
87 2 5.1884879495381897e+00 1.6122946533823427e+01 8.2802488649004626e+00 0 0 -1
88 2 3.3292090619264174e+00 1.4097034225663547e+01 2.5778786018161934e+00 0 0 0
91 2 7.0526710751761064e+00 1.4095687315597933e+01 9.2211025240096109e+00 0 0 -1
92 2 6.4288636114971736e+00 1.6122402065976690e+01 9.6937662667743374e-01 0 0 0
94 2 5.8112394379529748e+00 1.4096215888965235e+01 2.2440288813203275e+00 0 0 0
89 2 8.2940760752068492e+00 1.4095129014676511e+01 1.9107176831894559e+00 0 0 0
93 2 8.9101449983499652e+00 1.6121153981864438e+01 6.3586412435587614e-01 0 0 0
95 2 7.6693238455748949e+00 1.6121815446220221e+01 3.1838485046670679e+00 0 0 0
532 2 1.0777935607249599e+01 1.4093775950453562e+01 1.5783996231437729e+00 0 0 0
537 2 1.0150910311910307e+01 1.6120533881355506e+01 2.8508508707123723e+00 0 0 0
730 2 9.5361186142672150e+00 1.4094431299354442e+01 8.8881762308656072e+00 0 0 -1
533 2 1.2020634691770063e+01 1.4093066397175741e+01 8.5565131656773961e+00 0 0 -1
534 2 1.3262685602071688e+01 1.4092510865388817e+01 1.2476594516323611e+00 0 0 0
535 2 1.1392186828124904e+01 1.6119957065642460e+01 3.0345021985981424e-01 0 0 0
536 2 1.3875053142800899e+01 1.6120307063819400e+01 9.4985446208424804e+00 0 0 -1
538 2 1.2633227296497754e+01 1.6119593543690367e+01 2.5193221742951031e+00 0 0 0
540 2 1.5116355077488256e+01 1.6121634124478529e+01 2.1911323200390207e+00 0 0 0
543 2 1.4504363897462630e+01 1.4093057053223257e+01 3.4661121648406468e+00 0 0 0
96 2 1.4665842058003553e+00 2.0179884787148989e+01 1.6377960800256790e+00 0 0 0
98 2 2.0870102515597808e+00 1.8151377491058454e+01 3.6351600521241345e-01 0 0 0
99 2 2.7043280874670246e+00 2.0179538732476541e+01 8.6137244350593605e+00 0 0 -1
97 2 4.5651735799084268e+00 1.8150522985558318e+01 2.8528489694162780e-02 0 0 0
100 2 3.9421054041804879e+00 2.0179102460537464e+01 1.3019729116651988e+00 0 0 0
101 2 5.1799218546755501e+00 2.0178603050982154e+01 8.2780111406273420e+00 0 0 -1
102 2 3.3260501138037886e+00 1.8150988385568109e+01 2.5772796255417298e+00 0 0 0
105 2 7.0436777099344141e+00 1.8149397389146102e+01 9.2190448107193355e+00 0 0 -1
106 2 6.4177995180148546e+00 2.0178027571238108e+01 9.6640553064647761e-01 0 0 0
108 2 5.8043592672893816e+00 1.8149985022493489e+01 2.2424406831952326e+00 0 0 0
103 2 8.2830820725648397e+00 1.8148761054959898e+01 1.9080858836035073e+00 0 0 0
104 2 9.5226609600144290e+00 1.8148168462926016e+01 8.8850679171147107e+00 0 0 -1
107 2 8.8937567447915313e+00 2.0176811817807820e+01 6.3129606712401509e-01 0 0 0
109 2 7.6557364370326715e+00 2.0177423138887484e+01 3.1800593680549119e+00 0 0 0
565 2 1.0762341540477076e+01 1.8147584390606077e+01 1.5745844031396430e+00 0 0 0
568 2 1.1370080237360735e+01 2.0175811722688000e+01 2.9695487677664789e-01 0 0 0
570 2 1.0131861837657999e+01 2.0176240157728799e+01 2.8452696512657467e+00 0 0 0
566 2 1.2002253245113261e+01 1.8147358365395664e+01 8.5522664414312324e+00 0 0 -1
567 2 1.3242290792393565e+01 1.8147312580603259e+01 1.2426360540207095e+00 0 0 0
569 2 1.3846999095912844e+01 2.0175474346372528e+01 9.4887334207298899e+00 0 0 -1
571 2 1.2608436526327246e+01 2.0175559064030448e+01 2.5114199412999132e+00 0 0 0
573 2 1.5085854285423641e+01 2.0175531282707571e+01 2.1783597473454535e+00 0 0 0
576 2 1.4482542324616949e+01 1.8147980006231510e+01 3.4586388585726029e+00 0 0 0
110 2 1.4641100808443976e+00 2.4240028717360328e+01 1.6372429274850768e+00 0 0 0
112 2 2.0835674958862804e+00 2.2209193808777396e+01 3.6271723689395974e-01 0 0 0
115 2 2.6989208638245796e+00 2.4239707356009131e+01 8.6122436164037808e+00 0 0 -1
2858 2 8.4726548131443435e-01 2.2209487816334956e+01 2.9123994569945220e+00 1 0 0
111 2 4.5561990315311620e+00 2.2208353687048042e+01 2.6027285200556430e-02 0 0 0
113 2 3.9337221643896823e+00 2.4239307896012690e+01 1.2995475124716562e+00 0 0 0
114 2 3.3198795234948704e+00 2.2208810800778874e+01 2.5756366218319027e+00 0 0 0
116 2 5.1685034964733365e+00 2.4238845118993002e+01 8.2745994076608067e+00 0 0 -1
119 2 7.0288810831367527e+00 2.2207262037201161e+01 9.2147008647784379e+00 0 0 -1
122 2 6.4032590162975165e+00 2.4238330506272657e+01 9.6196156353935514e-01 0 0 0
123 2 5.7925362311031909e+00 2.2207826654175694e+01 2.2390390294249518e+00 0 0 0
117 2 8.2652530670777455e+00 2.2206665179096362e+01 1.9027162554459744e+00 0 0 0
118 2 9.5016323240734604e+00 2.2206101160383280e+01 8.8785756015001382e+00 0 0 -1
120 2 7.6379822317676407e+00 2.4237783989051376e+01 3.1745019254486730e+00 0 0 0
121 2 8.8726534018958709e+00 2.4237238271524632e+01 6.2451668069400090e-01 0 0 0
598 2 1.0738059247846515e+01 2.2205573165964971e+01 1.5668169114127533e+00 0 0 0
602 2 1.0107286171871856e+01 2.4236706420906870e+01 2.8371321134157759e+00 0 0 0
603 2 1.1341850648358285e+01 2.4236223745435634e+01 2.8721401135464386e-01 0 0 0
599 2 1.1974503948469222e+01 2.2205156472797739e+01 8.5429259206714097e+00 0 0 -1
600 2 1.3211057219112908e+01 2.2204815345829598e+01 1.2313892896676961e+00 0 0 0
601 2 1.2576383704394853e+01 2.4235782619972916e+01 2.4998550085698241e+00 0 0 0
604 2 1.3810835387071851e+01 2.4235414580851788e+01 9.4750754145460583e+00 0 0 -1
607 2 1.5045270629785284e+01 2.4235011207879833e+01 2.1624324239566106e+00 0 0 0
608 2 1.4447710307736482e+01 2.2204571688897698e+01 3.4450392756861583e+00 0 0 0
124 2 1.4680276770451448e+00 1.6124157176565216e+01 6.4005309489086253e+00 0 0 0
127 2 2.0883839821473358e+00 1.4097347782922583e+01 5.1262106653103050e+00 0 0 0
128 2 2.7080697571979884e+00 1.6123825350530794e+01 3.8519976534404607e+00 0 0 0
125 2 3.3292308406654092e+00 1.4097019231917479e+01 7.3404518753304275e+00 0 0 0
126 2 4.5700976254136574e+00 1.4096641336586453e+01 4.7922124271405107e+00 0 0 0
129 2 3.9482056543001112e+00 1.6123424132776265e+01 6.0660938291615176e+00 0 0 0
130 2 5.1884306542853285e+00 1.6122951626930298e+01 3.5176928366286120e+00 0 0 0
131 2 5.8112800139417793e+00 1.4096184522223878e+01 7.0066036996809222e+00 0 0 0
135 2 7.0524459045527710e+00 1.4095687071518054e+01 4.4586238248782033e+00 0 0 0
136 2 6.4288093574168261e+00 1.6122419887263028e+01 5.7319889244543365e+00 0 0 0
132 2 7.6694240653562415e+00 1.6121811681814229e+01 7.9463931242804504e+00 0 0 0
133 2 8.2941406504305437e+00 1.4095070985078534e+01 6.6733147410196603e+00 0 0 0
137 2 8.9100259401551885e+00 1.6121210861058632e+01 5.3985240550169546e+00 0 0 0
631 2 1.0151068617425018e+01 1.6120573665267152e+01 7.6133790729555573e+00 0 0 0
633 2 1.0777982290372844e+01 1.4093723976959604e+01 6.3410792780979932e+00 0 0 0
731 2 9.5356607077397157e+00 1.4094468283385305e+01 4.1258280190230119e+00 0 0 0
632 2 1.2633507116638127e+01 1.6119968249096335e+01 7.2820054096745750e+00 0 0 0
634 2 1.2019795196061732e+01 1.4093177952445920e+01 3.7945946971890239e+00 0 0 0
635 2 1.3262717875068487e+01 1.4092993826366339e+01 6.0111364488252992e+00 0 0 0
636 2 1.1391961321990630e+01 1.6120112908628506e+01 5.0662430898837032e+00 0 0 0
637 2 1.3874631861978488e+01 1.6120206143819782e+01 4.7359895605088802e+00 0 0 0
638 2 1.4506037384122843e+01 1.4094139801255571e+01 8.2283286643987381e+00 0 0 0
641 2 1.5116989464929857e+01 1.6121614580913754e+01 6.9531652674941862e+00 0 0 0
138 2 1.4665814854281853e+00 2.0179888227654939e+01 6.4003713139541345e+00 0 0 0
141 2 2.0869980782361153e+00 1.8151381285086682e+01 5.1260944165287068e+00 0 0 0
142 2 2.7043267333080583e+00 2.0179536953164146e+01 3.8511492900237951e+00 0 0 0
139 2 3.3260516649697571e+00 1.8150994563175182e+01 7.3398570388629736e+00 0 0 0
140 2 4.5651512888277548e+00 1.8150530827816841e+01 4.7911108280038794e+00 0 0 0
143 2 3.9421004298582227e+00 2.0179109596655682e+01 6.0645494157228637e+00 0 0 0
144 2 5.1799215135147154e+00 2.0178597571072455e+01 3.5154326665269728e+00 0 0 0
145 2 5.8043578411710248e+00 1.8150001882321057e+01 7.0050244534293729e+00 0 0 0
149 2 7.0436389947775027e+00 1.8149411261885952e+01 4.4564846722613938e+00 0 0 0
150 2 6.4177912919466582e+00 2.0178041621897869e+01 5.7289829787723452e+00 0 0 0
146 2 7.6557330606111167e+00 2.0177439574077347e+01 7.9426460629417939e+00 0 0 0
147 2 8.2830714117406323e+00 1.8148807877734225e+01 6.6706831949848686e+00 0 0 0
148 2 9.5226003031634416e+00 1.8148179991404202e+01 4.1225084008559394e+00 0 0 0
151 2 8.8937457675532503e+00 2.0176835467679055e+01 5.3938707804727537e+00 0 0 0
664 2 1.0131852463827627e+01 2.0176286111660918e+01 7.6078791283277223e+00 0 0 0
666 2 1.0762318612839284e+01 1.8147710832580465e+01 6.3372170369157041e+00 0 0 0
669 2 1.1370064630231177e+01 2.0175824374308515e+01 5.0594893382795885e+00 0 0 0
665 2 1.2608416613347599e+01 2.0175593843951479e+01 7.2740095087395549e+00 0 0 0
667 2 1.2002152117713797e+01 1.8147277929293928e+01 3.7896257190339333e+00 0 0 0
668 2 1.3242251651099535e+01 1.8147431862569292e+01 6.0051574478421372e+00 0 0 0
670 2 1.3846960472791055e+01 2.0175636494602980e+01 4.7261831479463066e+00 0 0 0
671 2 1.4482757985759317e+01 1.8147796529275684e+01 8.2210879083258632e+00 0 0 0
674 2 1.5085767913592102e+01 2.0175817713554341e+01 6.9411882469780064e+00 0 0 0
152 2 1.4641103719360669e+00 2.4240028976921575e+01 6.3998159770880534e+00 0 0 0
154 2 2.6989224415341053e+00 2.4239706102464524e+01 3.8496689427368862e+00 0 0 0
157 2 2.0835679776138369e+00 2.2209194022217677e+01 5.1252896021109358e+00 0 0 0
2863 2 8.4726445845755272e-01 2.2209489461525255e+01 7.6749738766720492e+00 1 0 0
90 2 6.4032613461487857e+00 2.4238329530673273e+01 5.7245321030794774e+00 0 0 0
153 2 3.3198775168325594e+00 2.2208814174734954e+01 7.3382119081059738e+00 0 0 0
155 2 5.1685064135138878e+00 2.4238842686278716e+01 3.5120236715936519e+00 0 0 0
156 2 4.5562009277741824e+00 2.2208353271508170e+01 4.7885977222297278e+00 0 0 0
158 2 3.9337230745161622e+00 2.4239307968194211e+01 6.0621198376470691e+00 0 0 0
159 2 5.7925326742460426e+00 2.2207833252753236e+01 7.0016155698621532e+00 0 0 0
162 2 7.0288863840740703e+00 2.2207258985718067e+01 4.4521195830837410e+00 0 0 0
134 2 8.8726580837602693e+00 2.4237233928693882e+01 5.3870824178768748e+00 0 0 0
160 2 8.2652477524966113e+00 2.2206676421949812e+01 6.6652939202736841e+00 0 0 0
161 2 9.5016435601160669e+00 2.2206090195158819e+01 4.1159812804569080e+00 0 0 0
163 2 7.6379773085821423e+00 2.4237787932780225e+01 7.9370793846849113e+00 0 0 0
697 2 1.0738050459269445e+01 2.2205581193140592e+01 6.3293843482096044e+00 0 0 0
701 2 1.0107277627804139e+01 2.4236708092464571e+01 7.5997083255398392e+00 0 0 0
702 2 1.1341859024337202e+01 2.4236223585610272e+01 5.0497807351137380e+00 0 0 0
698 2 1.1974525583257316e+01 2.2205158481940241e+01 3.7803308562667444e+00 0 0 0
699 2 1.3211035923593279e+01 2.2204878845547398e+01 5.9939938489051814e+00 0 0 0
700 2 1.2576366792088447e+01 2.4235802521622944e+01 7.2624502232904540e+00 0 0 0
703 2 1.3810855236595378e+01 2.4235386506361763e+01 4.7124652736309613e+00 0 0 0
704 2 1.4447654406907395e+01 2.2204641840961916e+01 8.2077303327639264e+00 0 0 0
709 2 1.5045252528874627e+01 2.4235027913426759e+01 6.9250295026642323e+00 0 0 0
2826 2 8.4768617380360622e-01 1.4097626293846838e+01 2.9119913956825378e+00 1 0 0
2842 2 8.4799925642625429e-01 1.8151685610953923e+01 2.9123681414042486e+00 1 0 0
2874 2 8.4769642775294296e-01 1.4097619370575410e+01 7.6745643745091421e+00 1 0 0
2890 2 8.4800121148392815e-01 1.8151687911327716e+01 7.6749431215577442e+00 1 0 0
605 2 1.5684462655692794e+01 2.2204344283787730e+01 8.9620156479912672e-01 0 0 0
707 2 1.5684450968005056e+01 2.2204412896962033e+01 5.6587931533546145e+00 0 0 0
2843 2 2.2885520191579917e-01 2.0180146185952122e+01 4.1870461211748502e+00 1 0 0
2859 2 2.2929659244179523e-01 2.4240265603476672e+01 4.1874109898749605e+00 1 0 0
2814 2 2.2929579048065366e-01 2.4240266209002311e+01 8.9499850579820546e+00 1 0 0
2891 2 2.2885649708698463e-01 2.0180146735109219e+01 8.9496200869138445e+00 1 0 0
539 2 1.5747923670393464e+01 1.4097167394399532e+01 9.2273654277120132e-01 0 0 0
572 2 1.5723553363598716e+01 1.8148152007677883e+01 9.1198692712073914e-01 0 0 0
640 2 1.5748131754405788e+01 1.4096237048885504e+01 5.6850725647413602e+00 0 0 0
673 2 1.5723361358613696e+01 1.8149092571113695e+01 5.6750433206482231e+00 0 0 0
2827 2 2.2802101397202185e-01 1.6124420628594216e+01 4.1865193913187850e+00 1 0 0
2875 2 2.2803721796309873e-01 1.6124419453285547e+01 8.9490882886437486e+00 1 0 0
164 2 1.4614767826219981e+00 2.8304916706803706e+01 1.6365168761845021e+00 0 0 0
165 2 2.0794558889106503e+00 2.6271772760211270e+01 3.6157807258602809e-01 0 0 0
167 2 3.3128163929278229e+00 2.6271438013316651e+01 2.5735411894437465e+00 0 0 0
170 2 2.6935704128334712e+00 2.8304639869009065e+01 8.6106204341561519e+00 0 0 -1
2920 2 8.4607770462412857e-01 2.6272037002080712e+01 2.9122020849078707e+00 1 0 0
166 2 5.7794091120029591e+00 2.6270601862455354e+01 2.2349159879549902e+00 0 0 0
168 2 4.5461394170247278e+00 2.6271044162444419e+01 2.2940271792539969e-02 0 0 0
169 2 3.9256233187753162e+00 2.8304313993175754e+01 1.2970036567361010e+00 0 0 0
171 2 5.1576111898535659e+00 2.8303948961033541e+01 8.2710932877443284e+00 0 0 -1
172 2 7.0126041640705541e+00 2.6270128905640579e+01 9.2094631394347761e+00 0 0 -1
176 2 6.3895062829538940e+00 2.8303558262282607e+01 9.5743721031588869e-01 0 0 0
173 2 8.2457094866310552e+00 2.6269641454171484e+01 1.8962790452366172e+00 0 0 0
174 2 7.6212845325459959e+00 2.8303155062930198e+01 3.1688844838666999e+00 0 0 0
175 2 8.8529172636941205e+00 2.8302755689718182e+01 6.1769460633899964e-01 0 0 0
177 2 9.4787024131490245e+00 2.6269159200668231e+01 8.8707914494889355e+00 0 0 -1
732 2 1.0711570387590074e+01 2.6268698827551340e+01 1.5575415590116097e+00 0 0 0
735 2 1.0084380148908906e+01 2.8302371924049883e+01 2.8289894848556392e+00 0 0 0
736 2 1.1315642678109832e+01 2.8302017179143462e+01 2.7758876862871079e-01 0 0 0
733 2 1.3176847399192031e+01 2.6267871607559094e+01 1.2185095570544184e+00 0 0 0
734 2 1.2546678789847148e+01 2.8301688549278950e+01 2.4885968303521699e+00 0 0 0
737 2 1.3777453495485263e+01 2.8301390515232697e+01 9.4619632261716600e+00 0 0 -1
738 2 1.1944288841683266e+01 2.6268272659160143e+01 8.5319434308529587e+00 0 0 -1
739 2 1.4409222924269534e+01 2.6267474157017329e+01 3.4300523681925594e+00 0 0 0
743 2 1.5007930453548019e+01 2.8301115544118947e+01 2.1473444330838309e+00 0 0 0
178 2 1.4593109053186248e+00 3.2373526103966746e+01 1.6358149094897869e+00 0 0 0
179 2 2.0758433272034447e+00 3.0338742627791628e+01 3.6045554142506830e-01 0 0 0
181 2 3.3068872630956267e+00 3.0338473554299341e+01 2.5716307726905394e+00 0 0 0
184 2 2.6896563083229812e+00 3.2373294164769291e+01 8.6093128258317364e+00 0 0 -1
2936 2 8.4476643092363057e-01 3.0338977978873878e+01 2.9118512957605671e+00 1 0 0
180 2 5.7687538604408495e+00 3.0337868466349420e+01 2.2313289982345155e+00 0 0 0
182 2 4.5378677599146604e+00 3.0338178478437417e+01 2.0212233324830291e-02 0 0 0
183 2 3.9199493595065475e+00 3.2373053264048778e+01 1.2950712816821548e+00 0 0 0
185 2 5.1501571797781160e+00 3.2372810639407781e+01 8.2685084988511264e+00 0 0 -1
186 2 6.9995155634890507e+00 3.0337554129991272e+01 9.2049581290283395e+00 0 0 -1
190 2 6.3802463099821498e+00 3.2372576305346108e+01 9.5416096785780047e-01 0 0 0
187 2 8.2301208776158550e+00 3.0337249299895017e+01 1.8907831927697782e+00 0 0 0
188 2 7.6101852752850832e+00 3.2372362158551866e+01 3.1648665031149297e+00 0 0 0
189 2 8.8399384162058805e+00 3.2372174056842042e+01 6.1287673209317584e-01 0 0 0
191 2 9.4605403329464082e+00 3.0336965284761341e+01 8.8642119411946272e+00 0 0 -1
765 2 1.0690739565878589e+01 3.0336712733811613e+01 1.5497721644873965e+00 0 0 0
768 2 1.0069475888172525e+01 3.2372030307390929e+01 2.8232977554054761e+00 0 0 0
769 2 1.1298760648751262e+01 3.2371930726939553e+01 2.7094480269506954e-01 0 0 0
766 2 1.3150349130203415e+01 3.0336323553586737e+01 1.2079826382581951e+00 0 0 0
767 2 1.2527760327718383e+01 3.2371891024770171e+01 2.4809149187055621e+00 0 0 0
770 2 1.3756437112777652e+01 3.2371904771453622e+01 9.4531564125994372e+00 0 0 -1
771 2 1.1920688941572456e+01 3.0336496239511771e+01 8.5228560246262610e+00 0 0 -1
772 2 1.4379686478024324e+01 3.0336191181645603e+01 3.4179569404962895e+00 0 0 0
776 2 1.4984755928731476e+01 3.2371980909695992e+01 2.1373136629829368e+00 0 0 0
192 2 1.4579656721702952e+00 3.6443873737314327e+01 1.6352702137357567e+00 0 0 0
193 2 2.0735140689256415e+00 3.4408518549109921e+01 3.5962456765246859e-01 0 0 0
195 2 3.3034650891507273e+00 3.4408310975791331e+01 2.5703974174363067e+00 0 0 0
198 2 2.6879245716312967e+00 3.6443672471883232e+01 8.6086065975509793e+00 0 0 -1
2952 2 8.4352819663228307e-01 3.4408736612120123e+01 2.9114098708107221e+00 1 0 0
194 2 5.7631208884359744e+00 3.4407945302322382e+01 2.2292362075583845e+00 0 0 0
196 2 4.5333437317914704e+00 3.4408115595554094e+01 1.8562043581492035e-02 0 0 0