LAMMPS data file via write_data, version 11 Aug 2017, timestep = 1000

2917 atoms
2 atom types

0.0000000000000000e+00 8.4092262038030000e+01 xlo xhi
0.0000000000000000e+00 4.8738435450303001e+01 ylo yhi
0.0000000000000000e+00 8.6158195528330008e+00 zlo zhi

Masses

1 12.0107
2 55.845

Atoms # atomic

2 2 2.1387489663439365e+00 1.8197598366027861e+00 1.8023084237220361e+00 0 0 0
3 2 2.1417376705060529e+00 3.8477774047805644e+00 3.6610852245825559e-01 0 0 0
6 2 2.1417376712197482e+00 3.8477774047519469e+00 3.2380483728771936e+00 0 0 0
1 2 4.2155366741608642e+00 1.8208542317649088e+00 3.8776452367939457e-01 0 0 0
4 2 4.2209936182845267e+00 3.8487814744480975e+00 1.8232634604102613e+00 0 0 0
5 2 4.2155366742390310e+00 1.8208542317717797e+00 3.2597043746344689e+00 0 0 0
8 2 6.2925386848424383e+00 1.8223683148255965e+00 1.8451139418782496e+00 0 0 0
9 2 6.3005834468329684e+00 3.8501378716986379e+00 4.0841016264305108e-01 0 0 0
12 2 6.3005834467971171e+00 3.8501378717447836e+00 3.2803500137157324e+00 0 0 0
7 2 8.3698733619747916e+00 1.8243220142992305e+00 4.3044878939010406e-01 0 0 0
10 2 8.3806869952588379e+00 3.8518634289685294e+00 1.8653861668144460e+00 0 0 0
11 2 8.3698733619550794e+00 1.8243220143057401e+00 3.3023886403608027e+00 0 0 0
290 2 1.0447668399687913e+01 1.8267435745105411e+00 1.8876135299263506e+00 0 0 0
291 2 1.0461498279063088e+01 3.8539813924474395e+00 4.5025998694475117e-01 0 0 0
294 2 1.0461498279007694e+01 3.8539813924392523e+00 3.3221998379077613e+00 0 0 0
289 2 1.2526065124598960e+01 1.8296675072543529e+00 4.7268300303320610e-01 0 0 0
292 2 1.2543232400191952e+01 3.8565191444276796e+00 1.9068455697970244e+00 0 0 0
293 2 1.2526065124592325e+01 1.8296675072525199e+00 3.3446228539775333e+00 0 0 0
296 2 1.4605224189248657e+01 1.8331307604062443e+00 1.9294761959751454e+00 0 0 0
297 2 1.4626133238295202e+01 3.8595045892418232e+00 4.9117649821058579e-01 0 0 0
300 2 1.4626133238301984e+01 3.8595045892405850e+00 3.3631163491449461e+00 0 0 0
14 2 2.1442153450720189e+00 5.8747604705103518e+00 1.8018911721239570e+00 0 0 0
15 2 2.1460533842393041e+00 7.9009782649985407e+00 3.6578735520518268e-01 0 0 0
18 2 2.1460533895439169e+00 7.9009782672526008e+00 3.2377272063743638e+00 0 0 0
13 2 4.2254210181166201e+00 5.8756388516910896e+00 3.8691235046747097e-01 0 0 0
16 2 4.2285841294941404e+00 7.9017041809816400e+00 1.8226132647175730e+00 0 0 0
17 2 4.2254210184880074e+00 5.8756388519905025e+00 3.2588522017026302e+00 0 0 0
20 2 6.3070537179443535e+00 5.8767796087456494e+00 1.8437879939721076e+00 0 0 0
21 2 6.3116079570515922e+00 7.9025873041077919e+00 4.0740232291459461e-01 0 0 0
24 2 6.3116079547841073e+00 7.9025873040168690e+00 3.2793421746493241e+00 0 0 0
19 2 8.3893379678089630e+00 5.8781956982919539e+00 4.2858525401424857e-01 0 0 0
22 2 8.3953772694096962e+00 7.9036365863487124e+00 1.8639735544327583e+00 0 0 0
23 2 8.3893379674326951e+00 5.8781956982561185e+00 3.3005251051034272e+00 0 0 0
323 2 1.0472515193894269e+01 5.8799043221537968e+00 1.8851192700223860e+00 0 0 0
324 2 1.0480162385977305e+01 7.9048632031523320e+00 4.4837410615734669e-01 0 0 0
327 2 1.0480162385947212e+01 7.9048632030761254e+00 3.3203139569231697e+00 0 0 0
322 2 1.2556850909874134e+01 5.8819250162594487e+00 4.6942885062288781e-01 0 0 0
325 2 1.2566258888264032e+01 7.9062791520005407e+00 1.9043916889420593e+00 0 0 0
326 2 1.2556850909893329e+01 5.8819250162499799e+00 3.3413687015294462e+00 0 0 0
329 2 1.4642643063128100e+01 5.8842761741173755e+00 1.9252873265433306e+00 0 0 0
330 2 1.4653995192653129e+01 7.9078947677287230e+00 4.8802713513090562e-01 0 0 0
333 2 1.4653995192756279e+01 7.9078947677340992e+00 3.3599669860447494e+00 0 0 0
26 2 2.1471554239969541e+00 9.9267397567537810e+00 1.8016842733942662e+00 0 0 0
27 2 2.1474496833104242e+00 1.1952374373436886e+01 3.6570681900245805e-01 0 0 0
30 2 2.1474496228880553e+00 1.1952374383650655e+01 3.2376467059992144e+00 0 0 0
25 2 4.2303236923714183e+00 9.9272943516081895e+00 3.8650151674367855e-01 0 0 0
28 2 4.2305435868570207e+00 1.1952746060700049e+01 1.8224649364960916e+00 0 0 0
29 2 4.2303236798020469e+00 9.9272943522400219e+00 3.2584413724860974e+00 0 0 0
32 2 6.3140251406737837e+00 9.9278928451925861e+00 1.8431557636102811e+00 0 0 0
33 2 6.3141851564898586e+00 1.1953046951635871e+01 4.0718036703347932e-01 0 0 0
36 2 6.3141851475082165e+00 1.1953046949622388e+01 3.2791202141182745e+00 0 0 0
31 2 8.3985240331640938e+00 9.9285402967624794e+00 4.2770276641885979e-01 0 0 0
34 2 8.3986350300822004e+00 1.1953277985626759e+01 1.8636681848054770e+00 0 0 0
35 2 8.3985240322037704e+00 9.9285402962971130e+00 3.2996426164466572e+00 0 0 0
356 2 1.0484103041762493e+01 9.9292419043746722e+00 1.8839447366849147e+00 0 0 0
357 2 1.0484173104823340e+01 1.1953438364541453e+01 4.4797115860555003e-01 0 0 0
360 2 1.0484173107320283e+01 1.1953438364410960e+01 3.3199110082477459e+00 0 0 0
355 2 1.2571070599099334e+01 9.9300027067529442e+00 4.6790470555062363e-01 0 0 0
358 2 1.2571105591683775e+01 1.1953526207251599e+01 1.9038716935315814e+00 0 0 0
359 2 1.2571070599670083e+01 9.9300027067543564e+00 3.3398445562966232e+00 0 0 0
362 2 1.4659767838127483e+01 9.9308266219512564e+00 1.9233363015462326e+00 0 0 0
363 2 1.4659771885835697e+01 1.1953539563081002e+01 4.8736400205555891e-01 0 0 0
366 2 1.4659771885921906e+01 1.1953539563125325e+01 3.3593038531420119e+00 0 0 0
37 2 2.1387489662447345e+00 1.8197598367339278e+00 4.6742482746615686e+00 0 0 0
40 2 2.1387489660534351e+00 1.8197598368192032e+00 7.5461881257026358e+00 0 0 0
41 2 2.1417376702408659e+00 3.8477774049117275e+00 6.1099882240699790e+00 0 0 0
38 2 4.2209936179584213e+00 3.8487814744652273e+00 4.6952033114760354e+00 0 0 0
39 2 4.2155366740471809e+00 1.8208542318024028e+00 6.1316442255938197e+00 0 0 0
42 2 4.2209936177139786e+00 3.8487814743730695e+00 7.5671431624033669e+00 0 0 0
43 2 6.2925386847767681e+00 1.8223683148246597e+00 4.7170537928554559e+00 0 0 0
46 2 6.2925386847707934e+00 1.8223683148055643e+00 7.5889936437640495e+00 0 0 0
47 2 6.3005834466478055e+00 3.8501378716837849e+00 6.1522898646765452e+00 0 0 0
44 2 8.3806869952049929e+00 3.8518634289583149e+00 4.7373260178132632e+00 0 0 0
45 2 8.3698733619515124e+00 1.8243220142925289e+00 6.1743284912984935e+00 0 0 0
48 2 8.3806869953014900e+00 3.8518634289559852e+00 7.6092658686798034e+00 0 0 0
388 2 1.0447668399686691e+01 1.8267435745073919e+00 4.7595533808746318e+00 0 0 0
391 2 1.0447668399703648e+01 1.8267435745084017e+00 7.6314932318088022e+00 0 0 0
392 2 1.0461498279072936e+01 3.8539813924456761e+00 6.1941396888283009e+00 0 0 0
389 2 1.2543232400212082e+01 3.8565191444292308e+00 4.7787854207242795e+00 0 0 0
390 2 1.2526065124603454e+01 1.8296675072540551e+00 6.2165627049180836e+00 0 0 0
393 2 1.2543232400223099e+01 3.8565191444338462e+00 7.6507252716758885e+00 0 0 0
394 2 1.4605224189251269e+01 1.8331307604065428e+00 4.8014160469146416e+00 0 0 0
397 2 1.4605224189249759e+01 1.8331307604075389e+00 7.6733558978611596e+00 0 0 0
398 2 1.4626133238303334e+01 3.8595045892431759e+00 6.2350562000880023e+00 0 0 0
49 2 2.1442153442365748e+00 5.8747604703593366e+00 4.6738310228402202e+00 0 0 0
52 2 2.1442153419089833e+00 5.8747604698220552e+00 7.5457708748503096e+00 0 0 0
53 2 2.1460533804640067e+00 7.9009782640404307e+00 6.1096670602713035e+00 0 0 0
50 2 4.2285841266878244e+00 7.9017041805645905e+00 4.6945531180913349e+00 0 0 0
51 2 4.2254210171564548e+00 5.8756388515908853e+00 6.1307920530390776e+00 0 0 0
54 2 4.2285841281256467e+00 7.9017041799587302e+00 7.5664929674060915e+00 0 0 0
55 2 6.3070537174805521e+00 5.8767796086992954e+00 4.7157278453123617e+00 0 0 0
58 2 6.3070537179099553e+00 5.8767796086519004e+00 7.5876676958756599e+00 0 0 0
59 2 6.3116079562694667e+00 7.9025873039770502e+00 6.1512820252124829e+00 0 0 0
56 2 8.3953772696634772e+00 7.9036365863433948e+00 4.7359134049693159e+00 0 0 0
57 2 8.3893379677487658e+00 5.8781956982826973e+00 6.1724649559377314e+00 0 0 0
60 2 8.3953772706308758e+00 7.9036365865088900e+00 7.6078532558836267e+00 0 0 0
421 2 1.0472515193977138e+01 5.8799043221593204e+00 4.7570591208865087e+00 0 0 0
424 2 1.0472515194097214e+01 5.8799043221885201e+00 7.6289989718370625e+00 0 0 0
425 2 1.0480162386331129e+01 7.9048632031789667e+00 6.1922538077179947e+00 0 0 0
422 2 1.2566258888415920e+01 7.9062791520208027e+00 4.7763315397958515e+00 0 0 0
423 2 1.2556850909942169e+01 5.8819250162659786e+00 6.2133085524590559e+00 0 0 0
426 2 1.2566258888227072e+01 7.9062791520341911e+00 7.6482713908535596e+00 0 0 0
427 2 1.4642643063146433e+01 5.8842761741209761e+00 4.7972271774746043e+00 0 0 0
430 2 1.4642643063110985e+01 5.8842761741212835e+00 7.6691670284423159e+00 0 0 0
431 2 1.4653995192660101e+01 7.9078947677374325e+00 6.2319068370376556e+00 0 0 0
61 2 2.1471554084805655e+00 9.9267397540184543e+00 4.6736241418016622e+00 0 0 0
64 2 2.1471554097369894e+00 9.9267397481328672e+00 7.5455639827969838e+00 0 0 0
65 2 2.1474496436759729e+00 1.1952374366371734e+01 6.1095865590588145e+00 0 0 0
62 2 4.2305435839772167e+00 1.1952746057587440e+01 4.6944047807779077e+00 0 0 0
63 2 4.2303236864378597e+00 9.9272943503379363e+00 6.1303812224709811e+00 0 0 0
66 2 4.2305436229889493e+00 1.1952746058565960e+01 7.5663446257947964e+00 0 0 0
67 2 6.3140251410963053e+00 9.9278928448406631e+00 4.7150956125255234e+00 0 0 0
70 2 6.3140251476907556e+00 9.9278928455148634e+00 7.5870354630645789e+00 0 0 0
71 2 6.3141851634738284e+00 1.1953046951033064e+01 6.1510600581947257e+00 0 0 0
68 2 8.3986350345845118e+00 1.1953277985828271e+01 4.7356080312171942e+00 0 0 0
69 2 8.3985240348444723e+00 9.9285402967897713e+00 6.1715824663123628e+00 0 0 0
72 2 8.3986350325207972e+00 1.1953277986675534e+01 7.6075478856227008e+00 0 0 0
454 2 1.0484103042645058e+01 9.9292419044643268e+00 4.7558845869377473e+00 0 0 0
457 2 1.0484103041884511e+01 9.9292419046006088e+00 7.6278244385345362e+00 0 0 0
458 2 1.0484173105999675e+01 1.1953438364759515e+01 6.1918508599002999e+00 0 0 0
455 2 1.2571105591524605e+01 1.1953526207341735e+01 4.7758115448934548e+00 0 0 0
456 2 1.2571070599252486e+01 9.9300027068042063e+00 6.2117844074436075e+00 0 0 0
459 2 1.2571105590586857e+01 1.1953526207288423e+01 7.6477513959720271e+00 0 0 0
460 2 1.4659767838038334e+01 9.9308266219670092e+00 4.7952761526183298e+00 0 0 0
463 2 1.4659767837881500e+01 9.9308266219455010e+00 7.6672160035533290e+00 0 0 0
464 2 1.4659771885545583e+01 1.1953539563097916e+01 6.2312437042575120e+00 0 0 0
2571 2 6.2644131356417249e-02 3.8471163752195507e+00 1.7808618262660034e+00 1 0 0
2572 2 6.2062185520691739e-02 1.8190745041234473e+00 3.2168303038099664e+00 1 0 0
2615 2 6.2644131850171064e-02 3.8471163754961912e+00 4.6528016760074626e+00 1 0 0
2570 2 6.2062185225137373e-02 1.8190745043403198e+00 3.4489045328260559e-01 1 0 1
2616 2 6.2062185391794103e-02 1.8190745045700130e+00 6.0887701550538642e+00 1 0 0
2617 2 6.2644130885876906e-02 3.8471163759932017e+00 7.5247415286946646e+00 1 0 0
295 2 1.6685333838554598e+01 1.8371658247710927e+00 5.1403057533905550e-01 0 0 0
298 2 1.6710483910818233e+01 3.8629583343185061e+00 1.9470154946500551e+00 0 0 0
299 2 1.6685333838563629e+01 1.8371658247703528e+00 3.3859704262862533e+00 0 0 0
328 2 1.6730231437175011e+01 5.8869682106572698e+00 5.0867259976153778e-01 0 0 0
331 2 1.6743740460737929e+01 7.9097143517337702e+00 1.9430007178806006e+00 0 0 0
332 2 1.6730231437190838e+01 5.8869682106571997e+00 3.3806124506964776e+00 0 0 0
361 2 1.6750575459120224e+01 9.9317151650685798e+00 5.0619188900063206e-01 0 0 0
364 2 1.6750551299226139e+01 1.1953478280649174e+01 1.9421597790586980e+00 0 0 0
365 2 1.6750575459088388e+01 9.9317151650787832e+00 3.3781317399742647e+00 0 0 0
395 2 1.6710483910815306e+01 3.8629583343181948e+00 4.8189553455867671e+00 0 0 0
396 2 1.6685333838557572e+01 1.8371658247704981e+00 6.2579102772262116e+00 0 0 0
399 2 1.6710483910801830e+01 3.8629583343191984e+00 7.6908951965332228e+00 0 0 0
428 2 1.6743740460695800e+01 7.9097143517359569e+00 4.8149405688406670e+00 0 0 0
429 2 1.6730231437159496e+01 5.8869682106579724e+00 6.2525523016434308e+00 0 0 0
432 2 1.6743740460686581e+01 7.9097143517321857e+00 7.6868804197893947e+00 0 0 0
461 2 1.6750551299082204e+01 1.1953478280646443e+01 4.8140996300992427e+00 0 0 0
462 2 1.6750575459029157e+01 9.9317151650703579e+00 6.2500715909479201e+00 0 0 0
465 2 1.6750551299203000e+01 1.1953478280631822e+01 7.6860394809554036e+00 0 0 0
2647 2 6.4654685664962130e-02 1.1951928546986409e+01 7.5247225210156863e+00 1 0 0
2646 2 6.4267271797092462e-02 9.9262240073174972e+00 6.0887608470046262e+00 1 0 0
2586 2 6.3774025443379401e-02 7.9004031396790131e+00 1.7808574619510178e+00 1 0 0
2587 2 6.3222132934996011e-02 5.8741366685723087e+00 3.2168309845119598e+00 1 0 0
2630 2 6.3774026247472193e-02 7.9004031378502857e+00 4.6527973096546136e+00 1 0 0
2601 2 6.4654815215519079e-02 1.1951928594941647e+01 1.7808427575660930e+00 1 0 0
2602 2 6.4267335330370656e-02 9.9262240265162607e+00 3.2168209775555758e+00 1 0 0
2645 2 6.4654729363439856e-02 1.1951928586575121e+01 4.6527827468662286e+00 1 0 0
2600 2 6.4267285501131255e-02 9.9262240116938187e+00 3.4488112107553143e-01 1 0 1
2585 2 6.3222128862676641e-02 5.8741366685685472e+00 3.4489113805897442e-01 1 0 1
2631 2 6.3222130093166129e-02 5.8741366683540006e+00 6.0887708363840725e+00 1 0 0
2632 2 6.3774009503745788e-02 7.9004031342590668e+00 7.5247371673425816e+00 1 0 0
74 2 2.1468859641066760e+00 1.3978214120508593e+01 1.8017367016337245e+00 0 0 0
75 2 2.1454424998294606e+00 1.6004575970601838e+01 3.6589327209167744e-01 0 0 0
78 2 2.1454422132637805e+00 1.6004575972695953e+01 3.2378331756992242e+00 0 0 0
73 2 4.2292053547593795e+00 1.3978398928536160e+01 3.8662541140756052e-01 0 0 0
76 2 4.2263340225254140e+00 1.6004579643818150e+01 1.8228576331300217e+00 0 0 0
77 2 4.2292052956218669e+00 1.3978398923631934e+01 3.2585652554852054e+00 0 0 0
80 2 6.3120587341925845e+00 1.3978403458351570e+01 1.8433571432511924e+00 0 0 0
81 2 6.3077128703054930e+00 1.6004305206120605e+01 4.0779710520098611e-01 0 0 0
84 2 6.3077128836735303e+00 1.6004305202566734e+01 3.2797369290540854e+00 0 0 0
79 2 8.3956883087969558e+00 1.3978223958321619e+01 4.2799118726520535e-01 0 0 0
82 2 8.3897876715491257e+00 1.6003743208727212e+01 1.8645378257340586e+00 0 0 0
83 2 8.3956883169965426e+00 1.3978223957355072e+01 3.2999310312468100e+00 0 0 0
488 2 1.0480356289156939e+01 1.3977852977810125e+01 1.8843339705840081e+00 0 0 0
489 2 1.0472787900176636e+01 1.6002878821713821e+01 4.4913531756625585e-01 0 0 0
492 2 1.0472787905505340e+01 1.6002878821792887e+01 3.3210751671219327e+00 0 0 0
487 2 1.2566352047179008e+01 1.3977281088497348e+01 4.6841368120775773e-01 0 0 0
490 2 1.2556969923992856e+01 1.6001694061337247e+01 1.9053875372696820e+00 0 0 0
491 2 1.2566352048160180e+01 1.3977281088610738e+01 3.3403535323477933e+00 0 0 0
494 2 1.4653999081319181e+01 1.3976499577514746e+01 1.9239904837028090e+00 0 0 0
495 2 1.4642624429805878e+01 1.6000171508680168e+01 4.8930831303139677e-01 0 0 0
498 2 1.4642624429459813e+01 1.6000171508731050e+01 3.3612481645395369e+00 0 0 0
86 2 2.1431430901104203e+00 1.8031744445738298e+01 1.8020517895808499e+00 0 0 0
87 2 2.1400886275654489e+00 2.0059955554349791e+01 3.6632232627690708e-01 0 0 0
90 2 2.1400882526047820e+00 2.0059955563388005e+01 3.2382622220722861e+00 0 0 0
85 2 4.2220367895931004e+00 1.8031586016596588e+01 3.8726908751634875e-01 0 0 0
88 2 4.2165297139980948e+00 2.0059670854243876e+01 1.8237175972198765e+00 0 0 0
89 2 4.2220367464185538e+00 1.8031586011915071e+01 3.2592088799075123e+00 0 0 0
92 2 6.3013306369525441e+00 1.8031069284253874e+01 1.8443588146509415e+00 0 0 0
93 2 6.2932416227179955e+00 2.0058970470089875e+01 4.0912823587049973e-01 0 0 0
96 2 6.2932416500013204e+00 2.0058970470055325e+01 3.2810680454613133e+00 0 0 0
91 2 8.3811867011449159e+00 1.8030178466601026e+01 4.2939839270392405e-01 0 0 0
94 2 8.3703271093342035e+00 2.0057832858992153e+01 1.8664048877167179e+00 0 0 0
95 2 8.3811867193037042e+00 1.8030178466126188e+01 3.3013382319013700e+00 0 0 0
521 2 1.0461785555341484e+01 1.8028890838948616e+01 1.8862153945949740e+00 0 0 0
522 2 1.0447902006392665e+01 2.0056228565338667e+01 4.5163218752276602e-01 0 0 0
525 2 1.0447902012871303e+01 2.0056228565253143e+01 3.3235720371662065e+00 0 0 0
520 2 1.2543331890853006e+01 1.8027179349513137e+01 4.7086403900380075e-01 0 0 0
523 2 1.2526098528238185e+01 2.0054122073720915e+01 1.9086438764191498e+00 0 0 0
524 2 1.2543331891456610e+01 1.8027179349591840e+01 3.3428038909977520e+00 0 0 0
527 2 1.4626061507898358e+01 1.8025016082698247e+01 1.9271371557289363e+00 0 0 0
529 2 1.4605069893223348e+01 2.0051475584368429e+01 4.9349928505774010e-01 0 0 0
533 2 1.4605069892611516e+01 2.0051475584359849e+01 3.3654391368301506e+00 0 0 0
98 2 2.1364789149209917e+00 2.2089383876119047e+01 1.8025685107949982e+00 0 0 0
99 2 2.1326142732108120e+00 2.4120132029187179e+01 3.6688807592575240e-01 0 0 0
101 2 2.1326139190954407e+00 2.4120132031972300e+01 3.2388280939438960e+00 0 0 0
97 2 4.2101593409448945e+00 2.2089025752458678e+01 3.8829201100646710e-01 0 0 0
100 2 4.2101592723567540e+00 2.2089025761483438e+01 3.2602318186293040e+00 0 0 0
102 2 4.2033968238669166e+00 2.4119764933166948e+01 1.8248324588546831e+00 0 0 0
104 2 6.2839454074814061e+00 2.2088221682820489e+01 1.8459373441826077e+00 0 0 0
105 2 6.2741067501984906e+00 2.4118952049904454e+01 4.1084715605962691e-01 0 0 0
107 2 6.2741067509156272e+00 2.4118952054870896e+01 3.2827869819532185e+00 0 0 0
103 2 8.3578724198254104e+00 2.2086946912039565e+01 4.3161159679278083e-01 0 0 0
106 2 8.3578724383392977e+00 2.2086946912245807e+01 3.3035514337898313e+00 0 0 0
108 2 8.3447068886260105e+00 2.4117669407694624e+01 1.8688157071897187e+00 0 0 0
554 2 1.0431978025255278e+01 2.2085168360655238e+01 1.8891779427201516e+00 0 0 0
555 2 1.0415150909733871e+01 2.4115885196076452e+01 4.5486244204419074e-01 0 0 0
558 2 1.0415150916276414e+01 2.4115885195869993e+01 3.3268022898937115e+00 0 0 0
553 2 1.2506302445099767e+01 2.2082845964373210e+01 4.7473462301162217e-01 0 0 0
556 2 1.4555313555719806e+01 2.4110657777434049e+01 4.9896644165830856e-01 0 0 0
557 2 1.2506302445996372e+01 2.2082845964234163e+01 3.3466744748464872e+00 0 0 0
559 2 1.2485379384968269e+01 2.4113561639503441e+01 1.9128710729723479e+00 0 0 0
560 2 1.4555313555457337e+01 2.4110657777351303e+01 3.3709062932194627e+00 0 0 0
562 2 1.4580888926890403e+01 2.2079936098177164e+01 1.9321318131370016e+00 0 0 0
109 2 2.1468859215095843e+00 1.3978214105853480e+01 4.6736765649814123e+00 0 0 0
112 2 2.1468861112974702e+00 1.3978214096783857e+01 7.5456163530765341e+00 0 0 0
113 2 2.1454425150225158e+00 1.6004575951621696e+01 6.1097728851506083e+00 0 0 0
110 2 4.2263340797778248e+00 1.6004579638710709e+01 4.6947973935234897e+00 0 0 0
111 2 4.2292053758349750e+00 1.3978398923483734e+01 6.1305050697961754e+00 0 0 0
114 2 4.2263341306194198e+00 1.6004579646065530e+01 7.5667372797734309e+00 0 0 0
115 2 6.3120587531932264e+00 1.3978403457915190e+01 4.7152969702350198e+00 0 0 0
118 2 6.3120587539686719e+00 1.3978403461348103e+01 7.5872368355964861e+00 0 0 0
119 2 6.3077128990931097e+00 1.6004305206118268e+01 6.1516767731551170e+00 0 0 0
116 2 8.3897876785365444e+00 1.6003743209412008e+01 4.7364776715564387e+00 0 0 0
117 2 8.3956883155285951e+00 1.3978223958851911e+01 6.1718708833355791e+00 0 0 0
120 2 8.3897876646498268e+00 1.6003743210162952e+01 7.6084175322207210e+00 0 0 0
586 2 1.0480356289711736e+01 1.3977852978152104e+01 4.7562738220086853e+00 0 0 0
589 2 1.0480356285477653e+01 1.3977852978170349e+01 7.6282136745451918e+00 0 0 0
590 2 1.0472787899601343e+01 1.6002878822059330e+01 6.1930150214585682e+00 0 0 0
587 2 1.2556969922592389e+01 1.6001694061421336e+01 4.7773273899710977e+00 0 0 0
588 2 1.2566352046408127e+01 1.3977281088601481e+01 6.2122933841795005e+00 0 0 0
591 2 1.2556969921783352e+01 1.6001694061293044e+01 7.6492672402589923e+00 0 0 0
592 2 1.4653999080807619e+01 1.3976499577522608e+01 4.7959303351474132e+00 0 0 0
595 2 1.4653999080919366e+01 1.3976499577465336e+01 7.6678701857432081e+00 0 0 0
596 2 1.4642624429115786e+01 1.6000171508677536e+01 6.2331880155686124e+00 0 0 0
121 2 2.1431431576142845e+00 1.8031744432397129e+01 4.6739914701558076e+00 0 0 0
124 2 2.1431434854517915e+00 1.8031744430575078e+01 7.5459312914408398e+00 0 0 0
125 2 2.1400887001185414e+00 2.0059955554099478e+01 6.1102018385140964e+00 0 0 0
122 2 4.2165298061036172e+00 2.0059670852533351e+01 4.6956573069836161e+00 0 0 0
123 2 4.2220368704413076e+00 1.8031586012841576e+01 6.1311486657983396e+00 0 0 0
126 2 4.2165298513570937e+00 2.0059670850628663e+01 7.5675972225853263e+00 0 0 0
127 2 6.3013306719974755e+00 1.8031069284113354e+01 4.7162986245485561e+00 0 0 0
130 2 6.3013306485409730e+00 1.8031069286397518e+01 7.5882385121074671e+00 0 0 0
131 2 6.2932416617253075e+00 2.0058970469266750e+01 6.1530078914495698e+00 0 0 0
128 2 8.3703271167640310e+00 2.0057832858766279e+01 4.7383447337859019e+00 0 0 0
129 2 8.3811867081580154e+00 1.8030178467007644e+01 6.1732780901346755e+00 0 0 0
132 2 8.3703270968506533e+00 2.0057832858963121e+01 7.6102845979561016e+00 0 0 0
619 2 1.0461785553834607e+01 1.8028890839158652e+01 4.7581552488196106e+00 0 0 0
622 2 1.0461785547751960e+01 1.8028890839104253e+01 7.6300951009353506e+00 0 0 0
623 2 1.0447902004635825e+01 2.0056228565307542e+01 6.1955118930963415e+00 0 0 0
620 2 1.2526098526170982e+01 2.0054122073724411e+01 4.7805837299239897e+00 0 0 0
621 2 1.2543331888957123e+01 1.8027179349560182e+01 6.2147437431995609e+00 0 0 0
624 2 1.2526098525582482e+01 2.0054122073748506e+01 7.6525235796937814e+00 0 0 0
625 2 1.4626061507088176e+01 1.8025016082693075e+01 4.7990770074298101e+00 0 0 0
629 2 1.4626061507632910e+01 1.8025016082666326e+01 7.6710168576328632e+00 0 0 0
631 2 1.4605069892359783e+01 2.0051475584370657e+01 6.2373789877790324e+00 0 0 0
134 2 2.1364789346793622e+00 2.2089383892010087e+01 4.6745082512284641e+00 0 0 0
136 2 2.1364793123062920e+00 2.2089383878397346e+01 7.5464480063150736e+00 0 0 0
137 2 2.1326141899108846e+00 2.4120132055135045e+01 6.1107678199476299e+00 0 0 0
133 2 4.2033969609069874e+00 2.4119764927646386e+01 7.5687120823312775e+00 0 0 0
135 2 4.2101594166802148e+00 2.2089025754052191e+01 6.1321715882663019e+00 0 0 0
138 2 4.2033968645418049e+00 2.4119764939274539e+01 4.6967722296620620e+00 0 0 0
140 2 6.2839454460797626e+00 2.2088221681539935e+01 4.7178771465744891e+00 0 0 0
142 2 6.2839454283732845e+00 2.2088221678871495e+01 7.5898170348437617e+00 0 0 0
143 2 6.2741067831326465e+00 2.4118952049339324e+01 6.1547268136499085e+00 0 0 0
139 2 8.3447068861960947e+00 2.4117669405667307e+01 7.6126954109331129e+00 0 0 0
141 2 8.3578724291754813e+00 2.2086946911148782e+01 6.1754912909505126e+00 0 0 0
144 2 8.3447068995945131e+00 2.4117669406543257e+01 4.7407555471534115e+00 0 0 0
653 2 1.0431978024412691e+01 2.2085168360349119e+01 4.7611177963729601e+00 0 0 0
655 2 1.0431978017530815e+01 2.2085168360571785e+01 7.6330576494289071e+00 0 0 0
656 2 1.0415150910528780e+01 2.4115885195556061e+01 6.1987421445406605e+00 0 0 0
652 2 1.2485379382346743e+01 2.4113561639602136e+01 7.6567507764464606e+00 0 0 0
654 2 1.2506302443232917e+01 2.2082845964324370e+01 6.2186143273469163e+00 0 0 0
657 2 1.2485379383725817e+01 2.4113561639389289e+01 4.7848109257598299e+00 0 0 0
658 2 1.4555313554949423e+01 2.4110657777443766e+01 6.2428461444054131e+00 0 0 0
660 2 1.4580888926021954e+01 2.2079936098188362e+01 4.8040716649693112e+00 0 0 0
663 2 1.4580888926546367e+01 2.2079936098236253e+01 7.6760115151157358e+00 0 0 0
2676 2 6.3825227305121246e-02 2.0059837611227081e+01 1.7808478422306633e+00 1 0 0
2737 2 6.1788855211055829e-02 2.4120069219630324e+01 7.5247703086839346e+00 1 0 0
2736 2 6.2871895887224347e-02 2.2089312290697986e+01 6.0887785572267070e+00 1 0 0
2677 2 6.4502229498492811e-02 1.8031552546339508e+01 3.2168048334197672e+00 1 0 0
2721 2 6.3824886801907135e-02 2.0059837624868166e+01 4.6527880459995679e+00 1 0 0
2691 2 6.1788884362627756e-02 2.4120069084083060e+01 1.7808904450239347e+00 1 0 0
2690 2 6.2872315851970839e-02 2.2089312241027901e+01 3.4489834156837923e-01 1 0 1
2692 2 6.2871415911712525e-02 2.2089312217138232e+01 3.2168388625414375e+00 1 0 0
2693 2 6.1788329993518604e-02 2.4120069133385748e+01 4.6528310615729014e+00 1 0 0
2675 2 6.4503148213981717e-02 1.8031552497071434e+01 3.4486445364971074e-01 1 0 1
2722 2 6.4502875412110985e-02 1.8031552474803046e+01 6.0887444238770065e+00 1 0 0
2723 2 6.3825943682664435e-02 2.0059837603687811e+01 7.5247272681955062e+00 1 0 0
493 2 1.6743662536256821e+01 1.3975505297885622e+01 5.0702514357063366e-01 0 0 0
496 2 1.6730085367469400e+01 1.5998301412548125e+01 1.9446347842472693e+00 0 0 0
497 2 1.6743662536028573e+01 1.3975505297899019e+01 3.3789649946655023e+00 0 0 0
526 2 1.6710250882770211e+01 1.8022380588775054e+01 5.1103783230179045e-01 0 0 0
530 2 1.6684998127637733e+01 2.0048256153573643e+01 1.9499949677091020e+00 0 0 0
532 2 1.6710250882378485e+01 1.8022380588774368e+01 3.3829776834896355e+00 0 0 0
561 2 1.6655784448453218e+01 2.2076397903194714e+01 5.1744796120901360e-01 0 0 0
565 2 1.6655784448033156e+01 2.2076397903177320e+01 3.3893878124628016e+00 0 0 0
566 2 1.6624846228382239e+01 2.4107136785824775e+01 1.9570321020687722e+00 0 0 0
593 2 1.6730085367294144e+01 1.5998301412537153e+01 4.8165746352925281e+00 0 0 0
594 2 1.6743662536084191e+01 1.3975505297876962e+01 6.2509048455683649e+00 0 0 0
597 2 1.6730085367619736e+01 1.5998301412529564e+01 7.6885144860338519e+00 0 0 0
627 2 1.6684998127494346e+01 2.0048256153575082e+01 4.8219348187323101e+00 0 0 0
628 2 1.6710250882612250e+01 1.8022380588767771e+01 6.2549175342739600e+00 0 0 0
632 2 1.6684998127915460e+01 2.0048256153584671e+01 7.6938746693992712e+00 0 0 0
659 2 1.6624846228577667e+01 2.4107136785869635e+01 7.7009118037888671e+00 0 0 0
662 2 1.6655784448304132e+01 2.2076397903207202e+01 6.2613276632002215e+00 0 0 0
665 2 1.6624846228220814e+01 2.4107136785848063e+01 4.8289719531560573e+00 0 0 0
2661 2 6.4844090477350846e-02 1.6004297191002053e+01 1.7808309287483981e+00 1 0 0
2662 2 6.4872158943899194e-02 1.3977848276054628e+01 3.2168049771265252e+00 1 0 0
2706 2 6.4843779622037800e-02 1.6004297158352585e+01 4.6527711265513432e+00 1 0 0
2660 2 6.4872370519708511e-02 1.3977848207049648e+01 3.4486487761544299e-01 1 0 1
2707 2 6.4872135671649289e-02 1.3977848187872711e+01 6.0887448987876631e+00 1 0 0
2708 2 6.4844448555987810e-02 1.6004297086793148e+01 7.5247105430071715e+00 1 0 0
146 2 2.1255098803972925e+00 2.8185578290717544e+01 3.6741090298948936e-01 0 0 0
147 2 2.1288461332013169e+00 2.6152220459043491e+01 1.8031364324206951e+00 0 0 0
149 2 2.1255099148035197e+00 2.8185578265417295e+01 3.2393508124588344e+00 0 0 0
145 2 4.1967907842707035e+00 2.6151910184453577e+01 3.8941524274660205e-01 0 0 0
148 2 4.1967906793610545e+00 2.6151910190517103e+01 3.2613551332471844e+00 0 0 0
150 2 4.1908836580233162e+00 2.8185381056829677e+01 1.8258775569934000e+00 0 0 0
152 2 6.2558945063785094e+00 2.8184831185405780e+01 4.1246452334684430e-01 0 0 0
153 2 6.2644984348729142e+00 2.6151185897778902e+01 1.8476711656108278e+00 0 0 0
155 2 6.2558944801118157e+00 2.8184831188206182e+01 3.2844043834798575e+00 0 0 0
151 2 8.3318643282537490e+00 2.6150028426021329e+01 4.3404488871254077e-01 0 0 0
154 2 8.3318643331735736e+00 2.6150028427588659e+01 3.3059847310591124e+00 0 0 0
156 2 8.3203826450249068e+00 2.8183916136205294e+01 1.8710869463600845e+00 0 0 0
686 2 1.0384170339214148e+01 2.8182619268312038e+01 4.5790682010446399e-01 0 0 0
688 2 1.0398766044812398e+01 2.6148412141013921e+01 1.8924401666050865e+00 0 0 0
691 2 1.0384170341304896e+01 2.8182619268637541e+01 3.3298466686145258e+00 0 0 0
685 2 1.2465057196364709e+01 2.6146308379032213e+01 4.7900677270389441e-01 0 0 0
687 2 1.4508806020792539e+01 2.8178816832336008e+01 5.0411740939995742e-01 0 0 0
689 2 1.4530557841534144e+01 2.6143688293210030e+01 1.9376616897063321e+00 0 0 0
690 2 1.2465057198096062e+01 2.6146308378837990e+01 3.3509466231677920e+00 0 0 0
692 2 1.2447055982716186e+01 2.8180923710965221e+01 1.9168552550687346e+00 0 0 0
693 2 1.4508806021160973e+01 2.8178816832252572e+01 3.3760572603207231e+00 0 0 0
158 2 2.1210710946739000e+00 3.2255357017268587e+01 3.6773299247714597e-01 0 0 0
159 2 2.1228646960966762e+00 3.0220040402617489e+01 1.8035734896848363e+00 0 0 0
161 2 2.1210711270580016e+00 3.2255357013127046e+01 3.2396728253125331e+00 0 0 0
157 2 4.1861294087349821e+00 3.0219996310132959e+01 3.9030351570506411e-01 0 0 0
160 2 4.1861294121638304e+00 3.0219996304883910e+01 3.2622433814289762e+00 0 0 0
162 2 4.1828431350648891e+00 3.2255489429949080e+01 1.8265465924308300e+00 0 0 0
164 2 6.2441327441452703e+00 3.2255456018317453e+01 4.1350939780163293e-01 0 0 0
166 2 6.2489513608262950e+00 3.0219684838181173e+01 1.8490511339131201e+00 0 0 0
169 2 6.2441327437266159e+00 3.2255456017304105e+01 3.2854492522708378e+00 0 0 0
163 2 8.3111350600468210e+00 3.0219099348602704e+01 4.3598325455297582e-01 0 0 0
168 2 8.3111350542972158e+00 3.0219099349500169e+01 3.3079231073705171e+00 0 0 0
170 2 8.3047232763101917e+00 3.2255254106413958e+01 1.8725561818294596e+00 0 0 0
871 2 1.0364390611261177e+01 3.2254880922397795e+01 4.5987311949293058e-01 0 0 0
873 2 1.0372470936046051e+01 3.0218231578156630e+01 1.8950354193497261e+00 0 0 0
874 2 1.0364390610160608e+01 3.2254880922645796e+01 3.3318129707306126e+00 0 0 0
718 2 1.2432731696016535e+01 3.0217074781732354e+01 4.8239741062012470e-01 0 0 0
719 2 1.4480018775814866e+01 3.2253620877559960e+01 5.0742571784568724e-01 0 0 0
720 2 1.4491670029510964e+01 3.0215628276322668e+01 1.9420371754455541e+00 0 0 0
721 2 1.2432731696651279e+01 3.0217074781774951e+01 3.3543372609434430e+00 0 0 0
722 2 1.2422902628577031e+01 3.2254335161963454e+01 1.9194212788673057e+00 0 0 0
723 2 1.4480018775986080e+01 3.2253620877562291e+01 3.3793655686402166e+00 0 0 0
173 2 2.1202655067646274e+00 3.6327261581158751e+01 3.6778415039452145e-01 0 0 0