LAMMPS data file via write_data, version 11 Aug 2017, timestep = 1000

2413 atoms
2 atom types

0.0000000000000000e+00 8.4563877547995006e+01 xlo xhi
0.0000000000000000e+00 4.8738435450303001e+01 ylo yhi
0.0000000000000000e+00 7.0347872067779997e+00 zlo zhi

Masses

1 12.0107
2 55.845

Atoms # atomic

3 2 6.2005787251953437e-01 1.7950433592726509e+00 3.5210286727423075e+00 0 0 0
4 2 2.3034888699746303e+00 1.7775686731503084e+00 5.8655661331011828e+00 0 0 0
5 2 1.4617896332586457e+00 1.7862300416762018e+00 1.1758983089028823e+00 0 0 0
9 2 3.1451314938661263e+00 1.7690374294241358e+00 3.5204670594465068e+00 0 0 0
199 2 6.2435406120552983e-01 3.8218664308191688e+00 1.1034394688129723e-03 0 0 0
200 2 2.3102090052010538e+00 3.8043377090797481e+00 2.3447810406856577e+00 0 0 0
204 2 1.4672675200681939e+00 3.8130276764971622e+00 4.6903120635138800e+00 0 0 0
205 2 3.1532108435932962e+00 3.7957694990989648e+00 7.0340371293158030e+00 0 0 -1
10 2 4.8284580615322206e+00 1.7523812265359104e+00 5.8650988127619001e+00 0 0 0
11 2 3.9867920531384682e+00 1.7606398822831106e+00 1.1753879683137083e+00 0 0 0
15 2 5.6701297355185218e+00 1.7442549247191241e+00 3.5200270786391168e+00 0 0 0
16 2 7.3536240271287951e+00 1.7284088576784167e+00 5.8646737641734692e+00 0 0 0
17 2 6.5118490558300710e+00 1.7362633283933555e+00 1.1749586679400230e+00 0 0 0
206 2 4.8390700205033479e+00 3.7789820345633429e+00 2.3429686987371219e+00 0 0 0
210 2 3.9961101812986644e+00 3.7873150418957531e+00 4.6884995531295610e+00 0 0 0
211 2 5.6821097732614572e+00 3.7707601885877247e+00 7.0322144529182147e+00 0 0 -1
212 2 7.3683975834416575e+00 3.7546395980680312e+00 2.3410961432850832e+00 0 0 0
216 2 6.5251927226842525e+00 3.7626448678370017e+00 4.6866604477383884e+00 0 0 0
21 2 8.1954685229340942e+00 1.7206906676052305e+00 3.5195978907172063e+00 0 0 0
22 2 9.8794790881414141e+00 1.7056723374658973e+00 5.8642155497025561e+00 0 0 0
23 2 9.0374137131289647e+00 1.7131111295683190e+00 1.1745170766586857e+00 0 0 0
27 2 1.0721688846887751e+01 1.6983743857911329e+00 3.5191190546583351e+00 0 0 0
29 2 1.1564075145948813e+01 1.6912186401260099e+00 1.1740146465065320e+00 0 0 0
217 2 8.2117471610305017e+00 3.7467405042055564e+00 7.0303021935945944e+00 0 0 -1
218 2 9.8989608880975410e+00 3.7312535951793748e+00 2.3390879642815214e+00 0 0 0
222 2 9.0552512913270196e+00 3.7389450813708955e+00 4.6847035778638038e+00 0 0 0
223 2 1.0742907424772383e+01 3.7236630093615530e+00 7.0282408736429636e+00 0 0 -1
228 2 1.1587122062293966e+01 3.7161697856366969e+00 4.6825886990484831e+00 0 0 0
28 2 1.2406668340226194e+01 1.6842059350756537e+00 5.8636884315775859e+00 0 0 0
33 2 1.3249505474058644e+01 1.6773327546640930e+00 3.5185677158461175e+00 0 0 0
34 2 1.4936082925746714e+01 1.6639943639165387e+00 5.8630975961120404e+00 0 0 0
35 2 1.4092628705437068e+01 1.6705963759450086e+00 1.1734417647350570e+00 0 0 0
39 2 1.5779928066729568e+01 1.6575113202264733e+00 3.5179666246943180e+00 0 0 0
224 2 1.2431653229214847e+01 3.7087693973050380e+00 2.3369207024904459e+00 0 0 0
229 2 1.3276544926188318e+01 3.7014551943882612e+00 7.0260261145321241e+00 0 0 -1
230 2 1.4967614916915897e+01 3.6870439219992099e+00 2.3346361987058111e+00 0 0 0
234 2 1.4121845088439501e+01 3.6942182780881061e+00 4.6803334183576180e+00 0 0 0
235 2 1.5813917610714094e+01 3.6799154611160350e+00 7.0237288815971901e+00 0 0 -1
201 2 6.2991790757140009e-01 5.8471344856918011e+00 3.5153281591417223e+00 0 0 0
202 2 2.3176593239881060e+00 5.8296506689359964e+00 5.8585598957616734e+00 0 0 0
203 2 1.4740444867188085e+00 5.8383959907007803e+00 1.1695462304943225e+00 0 0 0
207 2 3.1613980600836418e+00 5.8210441913762345e+00 3.5127886171704605e+00 0 0 0
397 2 6.3744814991684018e-01 7.8717663951313348e+00 7.0289711189609534e+00 0 0 -1
398 2 2.3258394061187992e+00 7.8542435262546748e+00 2.3375637190549665e+00 0 0 0
402 2 1.4815356872873697e+00 7.8628804452601493e+00 4.6833807662891376e+00 0 0 0
403 2 3.1694859625187997e+00 7.8455541627043450e+00 7.0265183349216054e+00 0 0 -1
208 2 4.8490377369470030e+00 5.8040984494689463e+00 5.8559559997182635e+00 0 0 0
209 2 4.0052682199202438e+00 5.8125485362786549e+00 1.1669842877909249e+00 0 0 0
213 2 5.6929562387495318e+00 5.7957390128280473e+00 3.5101256414751032e+00 0 0 0
214 2 7.3811877960866603e+00 5.7792424780097598e+00 5.8531749901970409e+00 0 0 0
215 2 6.5370216497661087e+00 5.7874612433893651e+00 1.1642666028927626e+00 0 0 0
404 2 4.8579263740089660e+00 7.8283503549999054e+00 2.3347747480995982e+00 0 0 0
408 2 4.0136298688576177e+00 7.8369035916621987e+00 4.6806942022982652e+00 0 0 0
409 2 5.7021451459607331e+00 7.8198056865529217e+00 7.0236135850109340e+00 0 0 -1
410 2 7.3913950445434686e+00 7.8028319021922314e+00 2.3316318481535774e+00 0 0 0
414 2 6.5466677471559311e+00 7.8112952324877183e+00 4.6776471196643890e+00 0 0 0
219 2 8.2255628571380957e+00 5.7710950773687575e+00 3.5072753683513151e+00 0 0 0
220 2 9.9150010661520369e+00 5.7549893753519088e+00 5.8501938284993997e+00 0 0 0
221 2 9.0701628803528518e+00 5.7630140966466916e+00 1.1613509481665449e+00 0 0 0
225 2 1.0760140314201449e+01 5.7470206394304384e+00 3.5042313434407810e+00 0 0 0
227 2 1.1605613874881971e+01 5.7391008651656978e+00 1.1582525105432091e+00 0 0 0
415 2 8.2362839646464998e+00 7.7943871340851389e+00 7.0203777838554515e+00 0 0 -1
416 2 9.9269571282475013e+00 7.7775637954595647e+00 2.3282319386069066e+00 0 0 0
420 2 9.0814739413882837e+00 7.7859648746735131e+00 4.6743173728200329e+00 0 0 0
421 2 1.0772748683175578e+01 7.7691699434591781e+00 7.0169202326827715e+00 0 0 -1
426 2 1.1618918905616887e+01 7.7607773359621932e+00 4.6708155397579922e+00 0 0 0
226 2 1.2451459151937604e+01 5.7312200703178116e+00 5.8470503062564587e+00 0 0 0
231 2 1.3297731767382817e+01 5.7233692840705297e+00 3.5010558100392490e+00 0 0 0
232 2 1.4991765643197020e+01 5.7076960097875427e+00 5.8438709777206439e+00 0 0 0
233 2 1.4144482148488994e+01 5.7155339001920913e+00 1.1550636580064377e+00 0 0 0
237 2 1.5839648233236952e+01 5.6998338631685233e+00 3.4979142041891036e+00 0 0 0
422 2 1.2465496529744419e+01 7.7523766652601385e+00 2.3247098193984814e+00 0 0 0
427 2 1.3312520779247539e+01 7.7439528426036706e+00 7.0134018590250440e+00 0 0 -1
428 2 1.5008131769242739e+01 7.7269710259261428e+00 2.3212911570152923e+00 0 0 0
432 2 1.4160049529265111e+01 7.7354907563814068e+00 4.6673291023072272e+00 0 0 0
433 2 1.5856825515280088e+01 7.7183680561209060e+00 7.0100922652102469e+00 0 0 -1
399 2 6.4679689300655452e-01 9.8965535935891449e+00 3.5084213223077030e+00 0 0 0
400 2 2.3326250288960293e+00 9.8787179955111473e+00 5.8520088906072081e+00 0 0 0
401 2 1.4889343158013264e+00 9.8876123812428371e+00 1.1627382301103579e+00 0 0 0
405 2 3.1767971131720825e+00 9.8699021444898865e+00 3.5062937753294170e+00 0 0 0
595 2 6.4954224814994310e-01 1.1921584381483786e+01 7.0241634086689739e+00 0 0 -1
596 2 2.3368780653604428e+00 1.1903402208781186e+01 2.3330472373323929e+00 0 0 0
600 2 1.4933615366417394e+00 1.1912572655965928e+01 4.6787526210071215e+00 0 0 0
601 2 3.1803123011659111e+00 1.1894353787949870e+01 7.0221592835046556e+00 0 0 -1
406 2 4.8645793439368097e+00 9.8522877260482797e+00 5.8493991741306113e+00 0 0 0
407 2 4.0204077193893157e+00 9.8610837850648796e+00 1.1604434392253153e+00 0 0 0
411 2 5.7090429902776423e+00 9.8435175056139723e+00 3.5034818179432015e+00 0 0 0
412 2 7.3983264525943442e+00 9.8259754539711768e+00 5.8462936386844646e+00 0 0 0
413 2 6.5535175188311134e+00 9.8347453467608030e+00 1.1575007124156060e+00 0 0 0
602 2 4.8683327548664748e+00 1.1876293963429019e+01 2.3306083162300442e+00 0 0 0
606 2 4.0243047571844688e+00 1.1885350690107144e+01 4.6764425719228591e+00 0 0 0
607 2 5.7124730914791364e+00 1.1867257846703698e+01 7.0195474551541910e+00 0 0 -1
608 2 7.4016165593310408e+00 1.1849132166994355e+01 2.3277436455222160e+00 0 0 0
612 2 6.5569527482202803e+00 1.1858215065821176e+01 4.6736697893232151e+00 0 0 0
417 2 8.2434222404070638e+00 9.8172037895865252e+00 3.5002596273001028e+00 0 0 0
418 2 9.9344004307298093e+00 9.7996109604932560e+00 5.8429143560778360e+00 0 0 0
419 2 9.0887434872151243e+00 9.8084171195799819e+00 1.1541971394704096e+00 0 0 0
423 2 1.0780407266602987e+01 9.7907771658973655e+00 3.4968356504579572e+00 0 0 0
425 2 1.1626771704120557e+01 9.7819038566420993e+00 1.1507589825685878e+00 0 0 0
613 2 8.2465039177517045e+00 1.1840024390295108e+01 7.0165930032036812e+00 0 0 -1
614 2 9.9371880132518999e+00 1.1821676810624933e+01 2.3246878591004427e+00 0 0 0
618 2 9.0917043730245179e+00 1.1830877967120710e+01 4.6706450866196967e+00 0 0 0
619 2 1.0782986845143354e+01 1.1812417874106304e+01 7.0135271311815695e+00 0 0 -1
624 2 1.1629149686645720e+01 1.1803089274390338e+01 4.6675977119221512e+00 0 0 0
424 2 1.2473551802965970e+01 9.7729801942224324e+00 5.8394865432024741e+00 0 0 0
429 2 1.3320782891826941e+01 9.7639925784919246e+00 3.4934536391112601e+00 0 0 0
430 2 1.5016752944887113e+01 9.7457563629385433e+00 5.8363171209666618e+00 0 0 0
431 2 1.4168499706234014e+01 9.7549243093240836e+00 1.1474621625788182e+00 0 0 0
435 2 1.5865590299131352e+01 9.7364666245392790e+00 3.4904617800402375e+00 0 0 0
620 2 1.2475690514496883e+01 1.1793677413519157e+01 2.3216966788074691e+00 0 0 0
625 2 1.3322642940089542e+01 1.1784171286422051e+01 7.0106276490938981e+00 0 0 -1
626 2 1.5017933836402795e+01 1.1764816514243277e+01 2.3191111850312978e+00 0 0 0
630 2 1.4170047100868940e+01 1.1774556314439272e+01 4.6648312566150665e+00 0 0 0
631 2 1.5866340103748668e+01 1.1754935320125741e+01 7.0082744536818735e+00 0 0 -1
41 2 1.6624227619949746e+01 1.6511340030757709e+00 1.1728429233129263e+00 0 0 0
240 2 1.6660822210659418e+01 3.6728119273975643e+00 4.6780433457930277e+00 0 0 0
239 2 1.6688202963888426e+01 5.6919163365972478e+00 1.1519960078351321e+00 0 0 0
438 2 1.6706196363608811e+01 7.7096525559534905e+00 4.6641767763801338e+00 0 0 0
437 2 1.6715062208143880e+01 9.7270290230567547e+00 1.1447042262754819e+00 0 0 0
636 2 1.6715305493589238e+01 1.1744894223860538e+01 4.6627672199671260e+00 0 0 0
597 2 6.5138083054491980e-01 1.3946656108201131e+01 3.5066653467635285e+00 0 0 0
598 2 2.3381138547443969e+00 1.3928237539093059e+01 5.8502630787035610e+00 0 0 0
599 2 1.4946640810352099e+00 1.3937372811434464e+01 1.1610634702905280e+00 0 0 0
603 2 3.1816159130545341e+00 1.3919012327541484e+01 3.5045853436665171e+00 0 0 0
793 2 6.5190148739305764e-01 1.5971843061020280e+01 7.0244961096262131e+00 0 0 -1
794 2 2.3378239626329935e+00 1.5953333867852290e+01 2.3333967962361739e+00 0 0 0
798 2 1.4948465756297944e+00 1.5962607847780861e+01 4.6789330770716981e+00 0 0 0
799 2 3.1809151061942567e+00 1.5944075812897559e+01 7.0226657422661143e+00 0 0 -1
604 2 4.8689719791425663e+00 1.3900572687490417e+01 5.8479765599376776e+00 0 0 0
605 2 4.0252128953808315e+00 1.3909782042576076e+01 1.1588914061516313e+00 0 0 0
609 2 5.7128835208611397e+00 1.3891305663751174e+01 3.5022356763175044e+00 0 0 0
610 2 7.4012362711015784e+00 1.3872655878948162e+01 5.8455091226489779e+00 0 0 0
611 2 6.5569584765049793e+00 1.3881998871962217e+01 1.1564811115771285e+00 0 0 0
800 2 4.8672386543245478e+00 1.5925376242081454e+01 2.3315860350732711e+00 0 0 0
804 2 4.0240284538392936e+00 1.5934754516299362e+01 4.6771234374209048e+00 0 0 0
805 2 5.7105833361254650e+00 1.5915954761915442e+01 7.0208416404470828e+00 0 0 -1
806 2 7.3976646687608385e+00 1.5896890850002784e+01 2.3297786771680169e+00 0 0 0
810 2 6.5540463684887884e+00 1.5906461283210229e+01 4.6753062743817528e+00 0 0 0
615 2 8.2457325631208871e+00 1.3863246925943558e+01 3.4997404101076368e+00 0 0 0
616 2 9.9354520758979312e+00 1.3844222981780604e+01 5.8430105454963206e+00 0 0 0
617 2 9.0904612864401635e+00 1.3853770894608418e+01 1.1539751813619159e+00 0 0 0
621 2 1.0780727604593135e+01 1.3834587700513760e+01 3.4972779050326688e+00 0 0 0
623 2 1.1626308176767916e+01 1.3824857730454056e+01 1.1515767344586025e+00 0 0 0
811 2 8.2414620746618947e+00 1.5887243145833274e+01 7.0190509040978624e+00 0 0 -1
812 2 9.9296434037684431e+00 1.5867667595383979e+01 2.3280746063042499e+00 0 0 0
816 2 9.0854467187634746e+00 1.5877504441106847e+01 4.6735508141903725e+00 0 0 0
817 2 1.0774072370155622e+01 1.5857727639581091e+01 7.0174176318244479e+00 0 0 -1
822 2 1.1618749479832363e+01 1.5847675657296890e+01 4.6720136246925792e+00 0 0 0
622 2 1.2472221318988025e+01 1.3815024605552219e+01 5.8407068391670265e+00 0 0 0
627 2 1.3318492510194819e+01 1.3805076464033068e+01 3.4951059831754026e+00 0 0 0
628 2 1.5012208766219391e+01 1.3784797410559625e+01 5.8389216242126496e+00 0 0 0
629 2 1.4165146008151718e+01 1.3795003882501438e+01 1.1495764531385417e+00 0 0 0
633 2 1.5859706397416025e+01 1.3774447558155225e+01 3.4935837811147388e+00 0 0 0
818 2 1.2463695470220074e+01 1.5837505130452751e+01 2.3266606168684270e+00 0 0 0
823 2 1.3308929230862567e+01 1.5827211032667643e+01 7.0161572158013277e+00 0 0 -1
824 2 1.5000329157399666e+01 1.5806233878222315e+01 2.3258120793048715e+00 0 0 0
828 2 1.4154467935508290e+01 1.5816788126656077e+01 4.6709409834813842e+00 0 0 0
829 2 1.5846528399357906e+01 1.5795548757868234e+01 7.0155709483067943e+00 0 0 -1
795 2 6.5211724267285998e-01 1.7997648996400905e+01 3.5075055323357605e+00 0 0 0
796 2 2.3366653389727898e+00 1.7979256607917129e+01 5.8517228136285055e+00 0 0 0
797 2 1.4944126220521883e+00 1.7988497543963160e+01 1.1622266173008184e+00 0 0 0
801 2 3.1789341414877139e+00 1.7969942207715683e+01 3.5064494579361694e+00 0 0 0
991 2 6.5241676221867118e-01 2.0024661147962902e+01 7.0252354547489437e+00 0 0 -1
992 2 2.3348379935632981e+00 2.0006336496936559e+01 2.3354395396176963e+00 0 0 0
996 2 1.4936095157819560e+00 2.0015535954025452e+01 4.6803244810668252e+00 0 0 0
997 2 3.1760730744723609e+00 1.9997030453487017e+01 7.0253463508576797e+00 0 0 -1
802 2 4.8636737939786316e+00 1.7951114215393769e+01 5.8507377693819080e+00 0 0 0
803 2 4.0212793828695395e+00 1.7960571064881371e+01 1.1611985214597760e+00 0 0 0
807 2 5.7061458799688412e+00 1.7941570769211086e+01 3.5055030151213695e+00 0 0 0
808 2 7.3914193113156266e+00 1.7922215508088609e+01 5.8498682620852955e+00 0 0 0
809 2 6.5487276068472076e+00 1.7931942111477948e+01 1.1602852642768613e+00 0 0 0
998 2 4.8586555988303868e+00 1.9978119553234578e+01 2.3356311862202568e+00 0 0 0
1002 2 4.0173353302675929e+00 1.9987622300893957e+01 4.6804797881353020e+00 0 0 0
1003 2 5.7000309747554700e+00 1.9968509177287828e+01 7.0255817755700516e+00 0 0 -1
1004 2 7.3830033065109317e+00 1.9948959195561805e+01 2.3359605452976973e+00 0 0 0
1008 2 6.5414743984972068e+00 1.9958789146756764e+01 4.6807613658484613e+00 0 0 0
813 2 8.2342397020590070e+00 1.7912386141172632e+01 3.5046839982753633e+00 0 0 0
814 2 9.9203375471584874e+00 1.7892401974754062e+01 5.8491815128756945e+00 0 0 0
815 2 9.0772093675435990e+00 1.7902450715677762e+01 1.1595248652415833e+00 0 0 0
819 2 1.0763639279299854e+01 1.7882235276187615e+01 3.5040866390232757e+00 0 0 0
821 2 1.1607130089213419e+01 1.7871947371305431e+01 1.1590347421233049e+00 0 0 0
1009 2 8.2246228422002758e+00 1.9939012665335742e+01 7.0259669627677130e+00 0 0 -1
1010 2 9.9081750387719651e+00 1.9918759178150328e+01 2.3364819960250207e+00 0 0 0
1014 2 9.0663429197022705e+00 1.9928946564583313e+01 4.6812102809870781e+00 0 0 0
1015 2 1.0750125976003991e+01 1.9908447528935838e+01 7.0265729499311238e+00 0 0 -1
1020 2 1.1592203358979509e+01 1.9898010899232364e+01 4.6819137805246323e+00 0 0 0
820 2 1.2450821113504865e+01 1.7861534867222410e+01 5.8488202581510578e+00 0 0 0
825 2 1.3294724745741188e+01 1.7850996857670630e+01 3.5038774478978771e+00 0 0 0
826 2 1.4983213717673779e+01 1.7829553390695459e+01 5.8489912201822891e+00 0 0 0
827 2 1.4138852646150809e+01 1.7840334947211375e+01 1.1590024390226612e+00 0 0 0
831 2 1.5827815709610652e+01 1.7818661186188212e+01 3.5042780056112304e+00 0 0 0
1016 2 1.2434414900310738e+01 1.9887450591085255e+01 2.3372969085782827e+00 0 0 0
1021 2 1.3276765900699338e+01 1.9876769722381098e+01 7.0275143534364775e+00 0 0 -1
1022 2 1.4961903750939872e+01 1.9855078090195136e+01 2.3385351858962715e+00 0 0 0
1026 2 1.4119261031807799e+01 1.9865975146087280e+01 4.6829965879561444e+00 0 0 0
1027 2 1.5804695444173246e+01 1.9844094801546042e+01 7.0289207270047944e+00 0 0 -1
993 2 6.5251805295119036e-01 2.2053165453689537e+01 3.5081185721359955e+00 0 0 0
994 2 2.3324181952044896e+00 2.2034922287627793e+01 5.8540945103387907e+00 0 0 0
995 2 1.4924644184454139e+00 2.2044106008288434e+01 1.1637112038567690e+00 0 0 0
999 2 3.1724054867629272e+00 2.2025630206144147e+01 3.5097010480858115e+00 0 0 0
1189 2 6.5213849164450877e-01 2.4083421877239374e+01 7.0259149614400949e+00 0 0 -1
1190 2 2.3293165138736733e+00 2.4065239801538784e+01 2.3381952451648225e+00 0 0 0
1194 2 1.4907148953422020e+00 2.4074397249654677e+01 4.6820610880220661e+00 0 0 0
1195 2 3.1679439584416018e+00 2.4055953529014804e+01 7.0291108747186657e+00 0 0 -1
1000 2 4.8524657618672835e+00 2.2006689438751678e+01 5.8557178496281272e+00 0 0 0
1001 2 4.0124188752409369e+00 2.2016219187739154e+01 1.1653115415042758e+00 0 0 0
1005 2 5.6925590607211900e+00 2.1997044712616578e+01 3.5113491030359847e+00 0 0 0
1006 2 7.3728911437766307e+00 2.1977393705275908e+01 5.8574351518993355e+00 0 0 0
1007 2 6.5326991678476007e+00 2.1987280040299794e+01 1.1669915457511189e+00 0 0 0
1196 2 4.8452933579836008e+00 2.4037015649614361e+01 2.3413670789762469e+00 0 0 0
1200 2 4.0066046131712074e+00 2.4046546277796324e+01 4.6852392493811728e+00 0 0 0
1201 2 5.6840096452485023e+00 2.4027361976309191e+01 7.0322844741991331e+00 0 0 -1
1202 2 7.3615283756036938e+00 2.4007691281067348e+01 2.3445607350105853e+00 0 0 0
1206 2 6.5227556500380555e+00 2.4017587482003631e+01 4.6884198118289531e+00 0 0 0
1011 2 8.2131418997397958e+00 2.1967385706406407e+01 3.5131081910383828e+00 0 0 0
1012 2 9.8938291234413214e+00 2.1946997419733190e+01 5.8592975876822564e+00 0 0 0
1013 2 9.0534535023048850e+00 2.1957253791563303e+01 1.1687991087148446e+00 0 0 0
1017 2 1.0734272214435565e+01 2.1936617951795903e+01 3.5150315712865683e+00 0 0 0
1019 2 1.1574784187431668e+01 2.1926117184776899e+01 1.1707901668940828e+00 0 0 0
1207 2 8.2003261994668346e+00 2.3997673510017055e+01 7.0861351999600944e-04 0 0 0
1208 2 9.8779918054343767e+00 2.3977278594556321e+01 2.3478161888753371e+00 0 0 0
1212 2 9.0391483897414808e+00 2.3987535516458959e+01 4.6916518562519585e+00 0 0 0
1213 2 1.0716853457845588e+01 2.3966905323330121e+01 3.9891089983696325e-03 0 0 0
1218 2 1.1555730308466021e+01 2.3956420157685262e+01 4.6949577403472240e+00 0 0 0
1018 2 1.2415365971608216e+01 2.1915499459476571e+01 5.8613625785047923e+00 0 0 0
1023 2 1.3256018031934756e+01 2.1904772005669837e+01 3.5171762043220731e+00 0 0 0
1024 2 1.4937528609238585e+01 2.1883034834209678e+01 5.8636792972691820e+00 0 0 0
1025 2 1.4096739521277627e+01 2.1893945355944275e+01 1.1730192739466463e+00 0 0 0
1029 2 1.5778382397979497e+01 2.1872061761856095e+01 3.5195810607319933e+00 0 0 0
1214 2 1.2394618146809638e+01 2.3945829669588978e+01 2.3511466186458527e+00 0 0 0
1219 2 1.3233512328600671e+01 2.3935143319645682e+01 7.3414064668733637e-03 0 0 0
1220 2 1.4911298010996168e+01 2.3913540153750180e+01 2.3545255488087631e+00 0 0 0
1224 2 1.4072407550686318e+01 2.3924374333774445e+01 4.6983269359304591e+00 0 0 0
1225 2 1.5750177256036888e+01 2.3902663600870355e+01 1.0720353073916181e-02 0 0 0
635 2 1.6707662479343906e+01 1.3763947150039908e+01 1.1483680854420217e+00 0 0 0
834 2 1.6693078668963871e+01 1.5784736996887929e+01 4.6706560788814055e+00 0 0 0
833 2 1.6672663959337243e+01 1.7807673459656453e+01 1.1596574126956665e+00 0 0 0
1032 2 1.6647635808602011e+01 1.9833048551312960e+01 4.6845808674470675e+00 0 0 0
1031 2 1.6619296707469928e+01 2.1861054189537949e+01 1.1755096246663927e+00 0 0 0
1230 2 1.6589038342743205e+01 2.3891774186783440e+01 4.7016934448922809e+00 0 0 0
1191 2 6.5088212880503293e-01 2.6115520179048378e+01 3.5092806845088522e+00 0 0 0
1192 2 2.3253522203149459e+00 2.6097347458326897e+01 5.8574106467361089e+00 0 0 0
1193 2 1.4880958071072294e+00 2.6106497018003839e+01 1.1659602627864289e+00 0 0 0
1197 2 3.1626406242654643e+00 2.6088072212681823e+01 3.5140586568030669e+00 0 0 0
1393 2 6.4838987564567740e-01 2.8149358813218551e+01 7.0279556097696840e+00 0 0 -1
1394 2 2.3204212549083483e+00 2.8131176181880026e+01 2.3422396500778624e+00 0 0 0
1398 2 1.4843859566724631e+00 2.8140327098204825e+01 4.6851091886921852e+00 0 0 0
1399 2 3.1564868598069280e+00 2.8121912333312121e+01 7.0341394472267416e+00 0 0 -1
1198 2 4.8372902329623413e+00 2.6069157959753294e+01 5.8621127445440866e+00 0 0 0
1199 2 3.9999543628357492e+00 2.6078674177365865e+01 1.1706956120825838e+00 0 0 0
1203 2 5.6746404061037055e+00 2.6059524127939980e+01 3.5187367687815039e+00 0 0 0
1204 2 7.3493585010519089e+00 2.6039909969704429e+01 5.8667607292540431e+00 0 0 0
1205 2 6.5119982473513041e+00 2.6049774042779692e+01 1.1753565598274902e+00 0 0 0
1400 2 4.8286606845617639e+00 2.8103055113396614e+01 2.3483207826599521e+00 0 0 0
1404 2 3.9925703884727493e+00 2.8112537821961048e+01 4.6912365040910835e+00 0 0 0
1405 2 5.6647481406825131e+00 2.8093467537577173e+01 5.3946022982607591e-03 0 0 0
1406 2 7.3368699500076540e+00 2.8073985786560122e+01 2.3542997760208908e+00 0 0 0
1410 2 6.5008215351203269e+00 2.8083776991516128e+01 4.6972457404814056e+00 0 0 0
1209 2 8.1867139181232975e+00 2.6029933132303441e+01 3.5233748404745526e+00 0 0 0
1210 2 9.8613819663228099e+00 2.6009650467584670e+01 5.8713794355440161e+00 0 0 0
1211 2 9.0240573572421408e+00 2.6019845519764569e+01 1.1799856996976781e+00 0 0 0
1215 2 1.0698680024414209e+01 2.5999351943405276e+01 3.5279796329211202e+00 0 0 0
1217 2 1.1535943529163742e+01 2.5988955588860449e+01 1.1845707397043690e+00 0 0 0
1411 2 8.1728830482323449e+00 2.8064096918781697e+01 1.1343187445693518e-02 0 0 0
1412 2 9.8447584652667679e+00 2.8044038661342373e+01 2.3601764780169789e+00 0 0 0
1416 2 9.0088496049757723e+00 2.8054113324253930e+01 4.7031611869276331e+00 0 0 0
1417 2 1.0680598678387867e+01 2.8033877819821072e+01 1.7172379407760483e-02 0 0 0
1422 2 1.1516358775771945e+01 2.8023636898743380e+01 4.7089310394802322e+00 0 0 0
1216 2 1.2373164302767508e+01 2.5978469279223606e+01 5.8759363585272562e+00 0 0 0
1221 2 1.3210333765068940e+01 2.5967903352075155e+01 3.5324975809411865e+00 0 0 0
1222 2 1.4884483419330476e+01 2.5946591076747694e+01 5.8803332742771151e+00 0 0 0
1223 2 1.4047443114526910e+01 2.5957271443195697e+01 1.1890362463548618e+00 0 0 0
1227 2 1.5721445768539915e+01 2.5935884569683161e+01 3.5368070921100627e+00 0 0 0
1418 2 1.2352027283522315e+01 2.8013323732001886e+01 2.3658719184648955e+00 0 0 0
1423 2 1.3187592996021200e+01 2.8002948295191118e+01 2.2774993270278626e-02 0 0 0
1424 2 1.4858371077848226e+01 2.7982064127162403e+01 2.3712206237155549e+00 0 0 0
1428 2 1.4023044626391700e+01 2.7992523167631944e+01 4.7144191287960959e+00 0 0 0
1429 2 1.5693561812750785e+01 2.7971590744113850e+01 2.7956557037746407e-02 0 0 0
1434 2 1.6528606973132344e+01 2.7961127021459809e+01 4.7194035887801640e+00 0 0 0
1395 2 6.4453850578170135e-01 3.0184712029076110e+01 3.5124280787787168e+00 0 0 0
1396 2 2.3145794733422007e+00 3.0166520410058013e+01 5.8622433703273558e+00 0 0 0
1397 2 1.4795439255749929e+00 3.0175665894887054e+01 1.1699521711249286e+00 0 0 0
1401 2 3.1496302585095730e+00 3.0157278406194628e+01 3.5197306214535895e+00 0 0 0
1597 2 6.3949192164458268e-01 3.2221240856960158e+01 7.0321948068633713e+00 0 0 -1
1598 2 2.3081113030384142e+00 3.2203066349057131e+01 2.3477246649505252e+00 0 0 0
1602 2 1.4737965205669097e+00 3.2212191637125073e+01 4.6899650036007259e+00 0 0 0
1603 2 3.1424197407993959e+00 3.2193867427060276e+01 5.4759551363662354e-03 0 0 0
1402 2 4.8197230755088913e+00 3.0138519574026567e+01 5.8694529329125160e+00 0 0 0
1403 2 3.9846829307917044e+00 3.0147943919307917e+01 1.1772042228388120e+00 0 0 0
1407 2 5.6547365767469540e+00 3.0129008073830256e+01 3.5269032852615183e+00 0 0 0
1408 2 7.3246293434817753e+00 3.0109736057273693e+01 5.8765570806141714e+00 0 0 0
1409 2 6.4897099866821906e+00 3.0119412631343742e+01 1.1843426602270566e+00 0 0 0
1604 2 4.8109529568603051e+00 3.2175260476351220e+01 2.3557469012648862e+00 0 0 0
1608 2 3.9767055369188062e+00 3.2184597648248328e+01 4.6980078093127675e+00 0 0 0
1609 2 5.6451459931475334e+00 3.2165859031840974e+01 1.3480327846318215e-02 0 0 0
1610 2 7.3133047941147939e+00 3.2146876123127413e+01 2.3637124050853449e+00 0 0 0
1614 2 6.4792685478984806e+00 3.2156396448886298e+01 4.7059942848803660e+00 0 0 0
1413 2 8.1594806984337094e+00 3.0099981429320376e+01 3.5339699865890721e+00 0 0 0
1414 2 9.8289247161962425e+00 3.0080252842657501e+01 5.8835258820105718e+00 0 0 0
1415 2 8.9942504046781160e+00 3.0090152374325402e+01 1.1913653565744065e+00 0 0 0
1419 2 1.0663489776934766e+01 3.0070287599148774e+01 3.5408713980482376e+00 0 0 0
1421 2 1.1497931895815123e+01 3.0060262416568214e+01 1.1981820542353019e+00 0 0 0
1615 2 8.1472387612494117e+00 3.2137301375231239e+01 2.1418668504389740e-02 0 0 0
1616 2 9.8147370061895867e+00 3.2118002863595272e+01 2.3715640034443686e+00 0 0 0
1620 2 8.9810547351909644e+00 3.2127675687659277e+01 4.7138959134323262e+00 0 0 0
1621 2 1.0648270072882553e+01 3.2108287144843267e+01 2.9202985352545920e-02 0 0 0
1622 2 1.2314828462293212e+01 3.2088746913935687e+01 2.3791449532888662e+00 0 0 0
1626 2 1.1481638910582593e+01 3.2098533348283489e+01 4.7215914992235515e+00 0 0 0
1420 2 1.2332237778284448e+01 3.0050184295805426e+01 5.8902367136761393e+00 0 0 0
1425 2 1.3166394113770824e+01 3.0040061703830965e+01 3.5474512087874821e+00 0 0 0
1426 2 1.4834207152882518e+01 3.0019726714994853e+01 5.8964630681783268e+00 0 0 0
1427 2 1.4000387977069410e+01 3.0029904928460088e+01 1.2046016814953413e+00 0 0 0
1431 2 1.5667840268003374e+01 3.0009542414279824e+01 3.5534476932000154e+00 0 0 0
1433 2 1.6501277039707890e+01 2.9999370116048613e+01 1.2103285980031424e+00 0 0 0
1627 2 1.3147824292189020e+01 3.2078934304709541e+01 3.6638986237088812e-02 0 0 0
1628 2 1.4813177887929815e+01 3.2059261412491566e+01 2.3861816064235262e+00 0 0 0
1632 2 1.3980612015862686e+01 3.2069103000225375e+01 4.7288476553504273e+00 0 0 0
1633 2 1.5645509875741979e+01 3.2049419650061488e+01 4.3411726904360688e-02 0 0 0
1638 2 1.6477597339012437e+01 3.2039589651421032e+01 4.7353078257819590e+00 0 0 0
1599 2 6.3368607735380889e-01 3.4258540245545205e+01 3.5174758820443017e+00 0 0 0
1600 2 2.3015230924450081e+00 3.4240431635811518e+01 5.8680339050580024e+00 0 0 0
1601 2 1.4676130025287299e+00 3.4249511918254917e+01 1.1753596568505507e+00 0 0 0
1605 2 3.1353994613274430e+00 3.4231302302200426e+01 3.5259260880218175e+00 0 0 0
1801 2 6.2773969553206777e-01 3.6296175609390012e+01 2.7694606402048185e-03 0 0 0
1802 2 2.2954690199501226e+00 3.6278187816330714e+01 2.3533012996592508e+00 0 0 0
1806 2 1.4616267167513219e+00 3.6287195427248136e+01 4.6954185783723821e+00 0 0 0
1807 2 3.1292487678642700e+00 3.6269156654821131e+01 1.1205652510679360e-02 0 0 0
1606 2 4.8029815902545998e+00 3.4212909766121399e+01 5.8765154757846281e+00 0 0 0
1607 2 3.9692247633539930e+00 3.4222127176643099e+01 1.1838241935712832e+00 0 0 0
1611 2 5.6366526672304085e+00 3.4203653824334992e+01 3.5344248239655469e+00 0 0 0
1612 2 7.3036675563631404e+00 3.4185040587062844e+01 5.8850386792119069e+00 0 0 0
1613 2 6.4702204713338540e+00 3.4194362953920766e+01 1.1923377159057755e+00 0 0 0
1808 2 4.7965480362132533e+00 3.6251041180826348e+01 2.3618665975951036e+00 0 0 0
1812 2 3.9629479018294571e+00 3.6260106328348307e+01 4.7039190619956832e+00 0 0 0
1813 2 5.6300305071365422e+00 3.6241965541112158e+01 1.9834236115082560e-02 0 0 0
1814 2 7.2965673194064902e+00 3.6223799159681597e+01 2.3706089643468862e+00 0 0 0
1818 2 6.4633766048558767e+00 3.6232883591165844e+01 4.7126073530629187e+00 0 0 0
1617 2 8.1369765695540153e+00 3.4175690141503964e+01 3.5429495578309593e+00 0 0 0
1618 2 9.8031107397248221e+00 3.4156918553786035e+01 5.8935290229987292e+00 0 0 0
1619 2 8.9701300870843870e+00 3.4166314990483059e+01 1.2008526350366531e+00 0 0 0
1623 2 1.0635900795485774e+01 3.4147504195991033e+01 3.5513967547131493e+00 0 0 0
1624 2 1.2300841422502032e+01 3.4128636234729619e+01 5.9018175223122649e+00 0 0 0
1625 2 1.1468483186624024e+01 3.4138075497101482e+01 1.2092340391339003e+00 0 0 0
1819 2 8.1295834699759713e+00 3.6214715734197711e+01 2.8622914919737698e-02 0 0 0
1820 2 9.7950130051017474e+00 3.6196564577874369e+01 2.3794563082040701e+00 0 0 0
1824 2 8.9624052089906012e+00 3.6205636532519328e+01 4.7214319938742904e+00 0 0 0
1825 2 1.0627387705231095e+01 3.6187502570214058e+01 3.7476463239678307e-02 0 0 0
1826 2 1.2291359310747122e+01 3.6169416519331129e+01 2.3882572622139979e+00 0 0 0
1830 2 1.1459509470126426e+01 3.6178452570841557e+01 4.7302714799616279e+00 0 0 0
1629 2 1.3132958827128567e+01 3.4119190082056100e+01 3.5595602043425787e+00 0 0 0
1630 2 1.4796410172990159e+01 3.4100294466318978e+01 5.9096129913533684e+00 0 0 0
1631 2 1.3964819912917999e+01 3.4109741318240211e+01 1.2172349782685261e+00 0 0 0
1635 2 1.5627714985471700e+01 3.4090853381944591e+01 3.5671011277728901e+00 0 0 0
1637 2 1.6458722467042751e+01 3.4081423162391403e+01 1.2244659575450780e+00 0 0 0
1831 2 1.3122918783779287e+01 3.6160396129764926e+01 4.6209785315260599e-02 0 0 0
1832 2 1.4785091666502208e+01 3.6142403676445213e+01 2.3967453228131235e+00 0 0 0
1836 2 1.3954168556617640e+01 3.6151391774514103e+01 4.7389025206635234e+00 0 0 0
1837 2 1.5615672884098496e+01 3.6133431763344113e+01 5.4507679163295221e-02 0 0 0
1842 2 1.6445894378765846e+01 3.6124472908497680e+01 4.7469548074699439e+00 0 0 0
1229 2 1.6558321218094317e+01 2.5925179667447786e+01 1.1932371762705434e+00 0 0 0
1803 2 6.2233186092400083e-01 3.8333698418996349e+01 3.5225414909044672e+00 0 0 0
1804 2 2.2906496516930441e+00 3.8315877331371254e+01 5.8727800982443119e+00 0 0 0
1805 2 1.4565254465107085e+00 3.8324789345085598e+01 1.1802477519293353e+00 0 0 0
1809 2 3.1246861779775781e+00 3.8306968377383008e+01 3.5305642662996246e+00 0 0 0