LAMMPS data file via write_data, version 11 Aug 2017, timestep = 1000

3121 atoms
2 atom types

0.0000000000000000e+00 8.0823551628805006e+01 xlo xhi
0.0000000000000000e+00 4.8738435450303001e+01 ylo yhi
0.0000000000000000e+00 9.5251469060520009e+00 zlo zhi

Masses

1 12.0107
2 55.845

Atoms # atomic

1 2 6.1104661106544189e-01 3.8108298140339403e+00 1.0540176531606200e-01 0 0 0
2 2 2.4680316744058675e+00 1.7654023383814859e+00 4.0048898559067192e+00 0 0 0
3 2 1.2257046251813295e+00 1.7775549657422098e+00 1.4065432593582390e+00 0 0 0
7 2 1.8556504937217337e+00 3.7986666898647865e+00 2.7031864370802308e+00 0 0 0
4 2 3.7128362739915226e+00 1.7536502036555848e+00 1.8410740727095307e+00 0 0 0
5 2 4.3462342425182703e+00 3.7749759145672854e+00 3.1361190898062317e+00 0 0 0
6 2 3.1027047206972167e+00 3.7866917054037659e+00 5.3923539048480418e-01 0 0 0
8 2 4.9539054265590137e+00 1.7417198663065028e+00 4.4385977094869729e+00 0 0 0
9 2 6.2008656830609157e+00 1.7305896845794084e+00 2.2746904494206905e+00 0 0 0
14 2 6.8367735780315293e+00 3.7521885334643792e+00 3.5672714505288408e+00 0 0 0
15 2 5.5958371389751775e+00 3.7634087356256698e+00 9.7262441885521977e-01 0 0 0
10 2 8.6915420255238214e+00 1.7082330285379417e+00 2.7045107235138395e+00 0 0 0
11 2 7.4501891432848062e+00 1.7206671883202274e+00 1.1281741982793593e-01 0 0 0
13 2 8.0920763663549753e+00 3.7410039291669048e+00 1.4049014654928753e+00 0 0 0
351 2 1.1178661442915201e+01 1.6833468043240347e+00 3.1455056964239367e+00 0 0 0
352 2 9.9521213166763847e+00 1.7026526639326296e+00 5.4191847368196033e-01 0 0 0
354 2 1.0597179028316425e+01 3.7192351934958650e+00 1.8255798839716910e+00 0 0 0
544 2 9.3270116169244233e+00 3.7302935001087048e+00 3.9940792512881718e+00 0 0 0
353 2 1.2448920353752518e+01 1.6837837620256704e+00 1.0007800859419775e+00 0 0 0
355 2 1.3069988313783574e+01 3.7000272600277793e+00 2.3270760881736137e+00 0 0 0
356 2 1.1807144740156273e+01 3.7096730009477659e+00 4.4350126641782035e+00 0 0 0
358 2 1.4964202648899557e+01 1.6112381462154159e+00 1.4650062630590368e+00 0 0 0
359 2 1.3684271247169777e+01 1.6603704339764584e+00 3.5880755473374073e+00 0 0 0
363 2 1.4523999406228304e+01 3.6879794057318906e+00 4.2547655943924029e-01 0 0 0
16 2 6.2253622477256632e-01 7.8606094555962098e+00 1.0256948901823353e-01 0 0 0
17 2 2.4870598023084791e+00 5.8182419989736074e+00 3.9999644231973637e+00 0 0 0
18 2 1.2407313571595711e+00 5.8302701392011489e+00 1.4025430001473309e+00 0 0 0
22 2 1.8707295040853187e+00 7.8483830179951370e+00 2.6999584908345855e+00 0 0 0
19 2 3.7358433812280909e+00 5.8062167448783146e+00 1.8351859419863279e+00 0 0 0
20 2 4.3683939034663242e+00 7.8242080523440736e+00 3.1320608678473270e+00 0 0 0
21 2 3.1201028127611337e+00 7.8359481390067707e+00 5.3508660645534745e-01 0 0 0
23 2 4.9812736280848897e+00 5.7948311315052452e+00 4.4318262333248741e+00 0 0 0
24 2 6.2325115830608215e+00 5.7830224038378732e+00 2.2669677529733057e+00 0 0 0
29 2 6.8676194761264187e+00 7.8009426857961524e+00 3.5631952033338092e+00 0 0 0
30 2 5.6193987072537999e+00 7.8116892514206109e+00 9.6732337985127093e-01 0 0 0
25 2 8.7327616541632587e+00 5.7608196567292085e+00 2.6951216521777290e+00 0 0 0
26 2 7.4862124444302447e+00 5.7702919238083243e+00 1.0413290102103072e-01 0 0 0
28 2 8.1219150294473064e+00 7.7875643031936388e+00 1.3987167995651784e+00 0 0 0
383 2 1.1230333416112602e+01 5.7429484875244343e+00 3.1345491304483168e+00 0 0 0
384 2 9.9982059402961401e+00 5.7442177559260168e+00 5.3192664778366094e-01 0 0 0
386 2 1.0627109917189591e+01 7.7642830559151328e+00 1.8316604651932216e+00 0 0 0
545 2 9.3679022335558866e+00 7.7801500107562047e+00 3.9945335836049294e+00 0 0 0
385 2 1.2505731775264152e+01 5.7218222511753254e+00 9.8952407707427248e-01 0 0 0
387 2 1.3139824372694644e+01 7.7443564255343560e+00 2.2743747825184744e+00 0 0 0
388 2 1.1871760246178576e+01 7.7708708632049159e+00 4.4238172802366078e+00 0 0 0
390 2 1.5038816227217817e+01 5.7514151805472977e+00 1.4557698666800758e+00 0 0 0
391 2 1.3749668428197005e+01 5.7241355739787121e+00 3.5783681549509083e+00 0 0 0
395 2 1.4392443207085710e+01 7.7129869827829483e+00 1.0747187865198132e-01 0 0 0
31 2 1.2510312044684375e+00 9.8778227501055849e+00 1.4006072523001261e+00 0 0 0
32 2 6.2927076067174237e-01 1.1907162574811824e+01 1.0162186718200737e-01 0 0 0
33 2 2.5001973699720348e+00 9.8653197949529261e+00 3.9981512346490127e+00 0 0 0
37 2 1.8784437900257711e+00 1.1894473565549422e+01 2.6993268503843844e+00 0 0 0
34 2 3.7499167498892780e+00 9.8528814326904737e+00 1.8330350704812548e+00 0 0 0
35 2 4.3776524243057029e+00 1.1868926901965963e+01 3.1322854317056588e+00 0 0 0
36 2 3.1279001133139497e+00 1.1881660573121795e+01 5.3446103978708304e-01 0 0 0
38 2 4.9997238624840588e+00 9.8404552872352777e+00 4.4305934035254211e+00 0 0 0
39 2 6.2504174165944812e+00 9.8281979527897843e+00 2.2653402932894693e+00 0 0 0
44 2 6.8786025322935700e+00 1.1843165302363579e+01 3.5657187885032018e+00 0 0 0
45 2 5.6278646536822050e+00 1.1855946353520705e+01 9.6752679465024050e-01 0 0 0
40 2 8.7531358026165993e+00 9.8041474313374568e+00 2.6978339225157955e+00 0 0 0
41 2 7.5023310079851964e+00 9.8145408270150973e+00 1.0097766127705893e-01 0 0 0
43 2 8.1298890606245440e+00 1.1829918979575908e+01 1.4011381099887381e+00 0 0 0
415 2 1.1259114386470463e+01 9.7830543675271784e+00 3.1310872916199317e+00 0 0 0
416 2 1.0007731106437372e+01 9.7879433940512293e+00 5.3453764350707966e-01 0 0 0
418 2 1.0634723960552446e+01 1.1803679925020360e+01 1.8357856582322274e+00 0 0 0
546 2 9.3822657314254485e+00 1.1817152787946373e+01 4.0003510656557371e+00 0 0 0
417 2 1.2516425111034769e+01 9.7594209989618221e+00 9.7065246130852334e-01 0 0 0
419 2 1.3144392419227239e+01 1.1772990500171408e+01 2.2750338929485769e+00 0 0 0
420 2 1.1890899458892410e+01 1.1787305665910067e+01 4.4395150646995081e+00 0 0 0
422 2 1.5031261219606797e+01 9.7325232830616777e+00 1.4116363263357865e+00 0 0 0
423 2 1.3774760947562260e+01 9.7532914602078407e+00 3.5759692731356596e+00 0 0 0
427 2 1.4401147449260293e+01 1.1757147243542521e+01 1.1465090087962967e-01 0 0 0
46 2 6.0977768768279283e-01 3.8108336690330962e+00 4.8676728752048781e+00 0 0 0
48 2 2.4697741751951807e+00 1.7656656855861015e+00 8.7682346670451849e+00 0 0 0
49 2 1.2250466825017987e+00 1.7776437051825946e+00 6.1691860880552811e+00 0 0 0
53 2 1.8563431635613261e+00 3.7986500896823965e+00 7.4663989864673095e+00 0 0 0
47 2 4.9583750731777965e+00 1.7424809647032755e+00 9.2030863742063502e+00 0 0 0
50 2 3.7112759915556532e+00 1.7538993165729591e+00 6.6038721952931221e+00 0 0 0
51 2 4.3484348909880071e+00 3.7749222133586855e+00 7.9004095204764884e+00 0 0 0
52 2 3.0992055423889351e+00 3.7867121334383431e+00 5.3010396839000657e+00 0 0 0
54 2 6.1973737725374907e+00 1.7312964395238613e+00 7.0377689365081881e+00 0 0 0
59 2 6.8434012727861653e+00 3.7520261684486882e+00 8.3349139897528719e+00 0 0 0
60 2 5.5861016567875978e+00 3.7634891528148717e+00 5.7329980008965657e+00 0 0 0
55 2 8.6831220545955006e+00 1.7102872615896223e+00 7.4719789127836531e+00 0 0 0
56 2 7.4391580378218940e+00 1.7182584765622717e+00 4.8697711264221137e+00 0 0 0
58 2 8.0642318894888589e+00 3.7413043401976864e+00 6.1618937573532016e+00 0 0 0
448 2 1.1175373324845681e+01 1.6940261370409371e+00 7.8927084814364701e+00 0 0 0
449 2 9.9203757164679214e+00 1.6924666722182251e+00 5.3015507996429116e+00 0 0 0
451 2 1.0514737661209283e+01 3.7208140296984786e+00 6.5888867508915583e+00 0 0 0
547 2 9.3480297797600116e+00 3.7299364795269150e+00 8.7714539484345675e+00 0 0 0
447 2 1.1896243764755283e+01 3.7079459239557480e+00 9.1759133069698269e+00 0 0 0
450 2 1.2406700976256625e+01 1.6309250386433234e+00 5.7123536119169440e+00 0 0 0
452 2 1.2923111184184005e+01 3.7008513172803190e+00 6.7409731535820763e+00 0 0 0
454 2 1.4920872245518098e+01 1.6641072215522346e+00 6.1785001502280084e+00 0 0 0
455 2 1.3682665770248567e+01 1.7169557455161815e+00 8.3520453109772603e+00 0 0 0
459 2 1.4374215186486525e+01 3.6871371111037186e+00 4.8372158397744549e+00 0 0 0
492 1 1.3721254186636507e+01 3.6920784409679461e+00 8.3469449325127361e+00 0 0 0
61 2 6.2213962857967597e-01 7.8606448689038837e+00 4.8650607420164178e+00 0 0 0
63 2 2.4886488018525861e+00 5.8179565911189348e+00 8.7632563839762803e+00 0 0 0
64 2 1.2400835890874993e+00 5.8301837803227770e+00 6.1651816377303383e+00 0 0 0
68 2 1.8708896177010212e+00 7.8481124667526005e+00 7.4627979650495693e+00 0 0 0
62 2 4.9854655746480940e+00 5.7939794801845634e+00 9.1962143212833229e+00 0 0 0
65 2 3.7343138957953550e+00 5.8059733772947588e+00 6.5979869596893588e+00 0 0 0
66 2 4.3689500796183456e+00 7.8234494077085568e+00 7.8952751766940859e+00 0 0 0
67 2 3.1191883416471615e+00 7.8360308343041147e+00 5.2975154197175360e+00 0 0 0
69 2 6.2290925455652291e+00 5.7823189410199749e+00 7.0300792538999684e+00 0 0 0
74 2 6.8691451145940103e+00 7.7987505081678563e+00 8.3279002789248935e+00 0 0 0
75 2 5.6174596361149671e+00 7.8118915315580937e+00 5.7295125403971729e+00 0 0 0
70 2 8.7243444081250896e+00 5.7588772436967197e+00 7.4626547447755254e+00 0 0 0
71 2 7.4755870196759497e+00 5.7729901785179214e+00 4.8612306944547736e+00 0 0 0
73 2 8.1173926198055906e+00 7.7883267521838260e+00 6.1619067978758366e+00 0 0 0
480 2 1.1226800769857121e+01 5.7328499033778373e+00 7.8827186785860146e+00 0 0 0
481 2 9.9664325680806449e+00 5.7556565265341391e+00 5.2911638716342333e+00 0 0 0
483 2 1.0621694178926402e+01 7.7666732836700580e+00 6.5949622312675036e+00 0 0 0
549 2 9.3740427212074362e+00 7.7723585261456929e+00 8.7605986101557836e+00 0 0 0
479 2 1.1885158409929035e+01 7.7362903811166825e+00 9.1967080075872811e+00 0 0 0
482 2 1.2463891838864290e+01 5.7752175155679932e+00 5.7015841741064195e+00 0 0 0
484 2 1.3141219536419989e+01 7.7261038944532041e+00 7.0449767355211996e+00 0 0 0
486 2 1.4993574862160358e+01 5.6980965931366381e+00 6.1671373354635728e+00 0 0 0
487 2 1.3748753269514038e+01 5.6667326271287415e+00 8.3411886486933877e+00 0 0 0
491 2 1.4394699675857847e+01 7.7316328345405738e+00 4.8777714027771442e+00 0 0 0
76 2 1.2510103064595772e+00 9.8777136628342816e+00 6.1632638374548154e+00 0 0 0
77 2 6.2928414121071796e-01 1.1907147520007975e+01 4.8642350143479076e+00 0 0 0
79 2 2.5004271558060087e+00 9.8651372253610301e+00 8.7607994204988078e+00 0 0 0
83 2 1.8785156242549836e+00 1.1894361585332490e+01 7.4619403108960540e+00 0 0 0
12 2 5.6280821552952975e+00 1.1855755882284338e+01 5.7304259397575361e+00 0 0 0
27 2 6.8789526203283158e+00 1.1842421400926098e+01 8.3285089799458198e+00 0 0 0
78 2 5.0002086735760853e+00 9.8399939072802152e+00 9.1933483563549157e+00 0 0 0
80 2 3.7499607998050903e+00 9.8525703845367687e+00 6.5958248660550653e+00 0 0 0
81 2 4.3778139917946781e+00 1.1868644215515259e+01 7.8949530199167475e+00 0 0 0
82 2 3.1279647155192967e+00 1.1881604101842854e+01 5.2971443962010172e+00 0 0 0
84 2 6.2506664433862431e+00 9.8273096254693417e+00 7.0286532529310017e+00 0 0 0
42 2 8.1305918526874841e+00 1.1829240813401547e+01 6.1647472050718841e+00 0 0 0
57 2 7.5012144824434097e+00 9.8158389887465685e+00 4.8634170023868339e+00 0 0 0
72 2 8.7544458531675424e+00 9.8013012238769157e+00 7.4625972790469168e+00 0 0 0
513 2 1.1263617764704234e+01 9.7709347396053392e+00 7.9006553231856476e+00 0 0 0
514 2 1.0006071357725292e+01 9.7920429940537055e+00 5.2976907409414347e+00 0 0 0
516 2 1.0636963464776077e+01 1.1800217753271978e+01 6.6019680029602901e+00 0 0 0
548 2 9.3828611985513248e+00 1.1815078506682443e+01 8.7633345092156869e+00 0 0 0
512 2 1.1890042684466033e+01 1.1786424526530364e+01 9.2002370268640146e+00 0 0 0
515 2 1.2519344510282627e+01 9.7603055921867643e+00 5.7407671850168134e+00 0 0 0
517 2 1.3146246436178123e+01 1.1771764832602223e+01 7.0404300346076694e+00 0 0 0
519 2 1.5034290037165098e+01 9.7318384930615469e+00 6.1817803311165704e+00 0 0 0
520 2 1.3774561172013607e+01 9.7438699687631001e+00 8.3385495632804378e+00 0 0 0
524 2 1.4403060365070132e+01 1.1758541668706636e+01 4.8800817661876659e+00 0 0 0
362 2 1.5642508118968221e+01 3.6769195475156775e+00 2.7308581506244654e+00 0 0 0
394 2 1.5667059396051984e+01 7.7324018788111220e+00 2.7292091048024272e+00 0 0 0
426 2 1.5658900580907327e+01 1.1743514923774550e+01 2.7166274313960650e+00 0 0 0
458 2 1.5547209162023398e+01 3.6788319063212667e+00 7.5155435488960176e+00 0 0 0
490 2 1.5651357589006999e+01 7.6972582044371540e+00 7.4817907427457513e+00 0 0 0
523 2 1.5659793441373980e+01 1.1742777148329226e+01 7.4810434979972094e+00 0 0 0
2791 2 1.8928425450752684e-03 9.8903761184851771e+00 3.5656341792192263e+00 1 0 0
2783 2 1.9893031327029576e-03 9.8903025359684484e+00 8.3282493284827073e+00 1 0 0
85 2 1.2551883219224742e+00 1.3924035016103899e+01 1.4007011871489368e+00 0 0 0
86 2 6.3155054542140421e-01 1.5954436802600000e+01 1.0200761528453979e-01 0 0 0
87 2 2.5039581216609199e+00 1.3911047614666783e+01 3.9987716520966141e+00 0 0 0
91 2 1.8790629786249038e+00 1.5941371963518428e+01 2.7004181815163171e+00 0 0 0
88 2 3.7528741636611347e+00 1.3898003982865102e+01 1.8342653712179233e+00 0 0 0
89 2 4.3746938466350542e+00 1.5914678726478943e+01 3.1349962684760184e+00 0 0 0
90 2 3.1267151727839209e+00 1.5928147827718275e+01 5.3631738273865981e-01 0 0 0
92 2 5.0023223330643898e+00 1.3884688792122208e+01 4.4326350877429856e+00 0 0 0
93 2 6.2519203170592945e+00 1.3871404083728002e+01 2.2683704223370547e+00 0 0 0
98 2 6.8716435195393295e+00 1.5887028249711479e+01 3.5703328087891517e+00 0 0 0
99 2 5.6228818894684238e+00 1.5901056857657977e+01 9.7117501038535936e-01 0 0 0
94 2 8.7530575625169824e+00 1.3844000408198927e+01 2.7035099088790786e+00 0 0 0
95 2 7.5021866259240166e+00 1.3857660575565651e+01 1.0443015474689274e-01 0 0 0
97 2 8.1206057602978401e+00 1.5872949690129358e+01 1.4069451406694715e+00 0 0 0
550 2 1.1257347572108619e+01 1.3814163024502953e+01 3.1411390673049704e+00 0 0 0
551 2 1.0004502922398297e+01 1.3829720775368804e+01 5.4014588953961085e-01 0 0 0
553 2 1.0620495986549585e+01 1.5843139927707622e+01 1.8443680854559297e+00 0 0 0
744 2 9.3705075764081318e+00 1.5857882163584495e+01 4.0070216242739232e+00 0 0 0
552 2 1.2510069266753920e+01 1.3799484709811106e+01 9.7852270239588968e-01 0 0 0
554 2 1.3122662987685601e+01 1.5812342743686374e+01 2.2832156107651427e+00 0 0 0
555 2 1.1871446614497232e+01 1.5827687366654818e+01 4.4449874206369859e+00 0 0 0
557 2 1.5019076430622412e+01 1.3768775077741033e+01 1.4187464044187734e+00 0 0 0
558 2 1.3764544844541591e+01 1.3783684090644327e+01 3.5802057694006102e+00 0 0 0
562 2 1.4374746525626646e+01 1.5797160659963430e+01 1.2195322089167332e-01 0 0 0
100 2 1.2542644489779298e+00 1.7972962355020243e+01 1.4018592538655055e+00 0 0 0
101 2 6.3033076000175126e-01 2.0006130594311866e+01 1.0292443290745089e-01 0 0 0
102 2 2.5002258748463086e+00 1.7959650760977311e+01 4.0008105676489674e+00 0 0 0
106 2 1.8741836104270100e+00 1.9992833421437574e+01 2.7023816585346494e+00 0 0 0
103 2 3.7463354584963802e+00 1.7946121927994010e+01 1.8372988562863732e+00 0 0 0
104 2 4.3623007914862253e+00 1.9965436856528246e+01 3.1390572136837713e+00 0 0 0
105 2 3.1181529828100234e+00 1.9979285179691683e+01 5.3936305618599356e-01 0 0 0
107 2 4.9927202581480268e+00 1.7932288916080871e+01 4.4365422286379674e+00 0 0 0
108 2 6.2393307971255059e+00 1.7918225408513020e+01 2.2733783040107718e+00 0 0 0
113 2 6.8511722231100736e+00 1.9936853411800783e+01 3.5763511029199524e+00 0 0 0
114 2 5.6066162596078204e+00 1.9951327194348778e+01 9.7631565035507117e-01 0 0 0
109 2 8.7336397047252987e+00 1.7888991742721327e+01 2.7104577853331158e+00 0 0 0
110 2 7.4862383947422506e+00 1.7903903329401640e+01 1.1039564394546032e-01 0 0 0
112 2 8.0959405517283649e+00 1.9922115686418703e+01 1.4140049135371453e+00 0 0 0
582 2 1.1229446835889402e+01 1.7858606673709424e+01 3.1486223273377201e+00 0 0 0
583 2 9.9812829259020308e+00 1.7874065717339306e+01 5.4803450458646974e-01 0 0 0
585 2 1.0586239518062847e+01 1.9891753915391192e+01 1.8525396582840736e+00 0 0 0
745 2 9.3409593057152360e+00 1.9907060024506197e+01 4.0144231650649198e+00 0 0 0
584 2 1.2477961250814364e+01 1.7843190014854059e+01 9.8688577000969535e-01 0 0 0
586 2 1.3077616232683948e+01 1.9860571784261026e+01 2.2920377219182675e+00 0 0 0
587 2 1.1831775544107733e+01 1.9876241599594749e+01 4.4534098381606242e+00 0 0 0
589 2 1.4976509520021905e+01 1.7811860240204961e+01 1.4270929284159046e+00 0 0 0
590 2 1.3726988399499556e+01 1.7827459252601475e+01 3.5880444737388282e+00 0 0 0
594 2 1.4323756020532961e+01 1.9844893609953896e+01 1.3092358516308741e-01 0 0 0
115 2 1.2492440420551152e+00 2.2027880589185408e+01 1.4035497192316990e+00 0 0 0
116 2 6.2567926741104729e-01 2.4064937748962251e+01 1.0430081054038966e-01 0 0 0
117 2 2.4908331471964020e+00 2.2014358970958455e+01 4.0036482709123664e+00 0 0 0
119 2 1.8647753860707468e+00 2.4051468465703771e+01 2.7049681294995023e+00 0 0 0
122 2 3.1039741747326528e+00 2.4037730725910524e+01 5.4312727641671388e-01 0 0 0
118 2 3.7325435509022817e+00 2.2000554954169921e+01 1.8412734253860188e+00 0 0 0
120 2 5.5826272074457162e+00 2.4009433627545842e+01 9.8225190413789554e-01 0 0 0
121 2 4.3432605651938943e+00 2.4023720622917168e+01 3.1439317220903167e+00 0 0 0
123 2 4.9743744737441284e+00 2.1986465909874806e+01 4.4415757630842227e+00 0 0 0
124 2 6.2163483087047000e+00 2.1972070169139947e+01 2.2794476745540195e+00 0 0 0
127 2 6.8220484863770849e+00 2.3994883772263499e+01 3.5832262144118916e+00 0 0 0
125 2 8.7006844251244697e+00 2.1942425123907167e+01 2.7181793434751289e+00 0 0 0
126 2 7.4584478053593743e+00 2.1957397541679772e+01 1.1745220314220893e-01 0 0 0
128 2 9.3010144022255759e+00 2.3965010427562639e+01 4.0229038978905507e+00 0 0 0
129 2 8.0615231068854953e+00 2.3980060438934199e+01 1.4217365900620398e+00 0 0 0
614 2 1.1185541135141165e+01 2.1911775290346256e+01 3.1575495678345318e+00 0 0 0
615 2 9.9430521169442336e+00 2.1927210633437895e+01 5.5650315146603768e-01 0 0 0
619 2 1.0540524617469650e+01 2.3949738626422477e+01 1.8616118362206915e+00 0 0 0
616 2 1.3670893820011045e+01 2.1880505192945254e+01 3.5976266139744704e+00 0 0 0
617 2 1.2428164678445384e+01 2.1896187016814810e+01 9.9622120023310667e-01 0 0 0
618 2 1.1780013606051989e+01 2.3934314849911097e+01 4.4629797473873465e+00 0 0 0
620 2 1.3019483379619043e+01 2.3918791527704531e+01 2.3018818965335943e+00 0 0 0
622 2 1.4913754860403461e+01 2.1864860425967812e+01 1.4366739150021568e+00 0 0 0
624 2 1.5498238939440650e+01 2.3887855839752142e+01 2.7425180463542320e+00 0 0 0
625 2 1.4258896421406687e+01 2.3903263323190419e+01 1.4086925661608560e-01 0 0 0
130 2 1.2552381058817692e+00 1.3923991280881538e+01 6.1633063286189369e+00 0 0 0
131 2 6.3157879310096587e-01 1.5954420468052767e+01 4.8646001680433466e+00 0 0 0
133 2 2.5039242215236612e+00 1.3911044004554959e+01 8.7612971118141036e+00 0 0 0
137 2 1.8790623672932365e+00 1.5941367020091752e+01 7.4629792610191101e+00 0 0 0
132 2 5.0022150177933487e+00 1.3884704654753628e+01 9.1950776435411115e+00 0 0 0
134 2 3.7529880980157477e+00 1.3897891289539213e+01 6.5969123721304923e+00 0 0 0
135 2 4.3746776155681912e+00 1.5914676563429659e+01 7.8975334819584004e+00 0 0 0
136 2 3.1267790231820110e+00 1.5928104413908011e+01 5.2989345209432592e+00 0 0 0
138 2 6.2521626835695354e+00 1.3871105470558042e+01 7.0311234821146238e+00 0 0 0
143 2 6.8715675652774708e+00 1.5887068725864950e+01 8.3327982349267025e+00 0 0 0
144 2 5.6230169611560781e+00 1.5900936838521782e+01 5.7338492841877331e+00 0 0 0
139 2 8.7535014364993433e+00 1.3843191806111435e+01 7.4665247762192193e+00 0 0 0
140 2 7.5025047972766563e+00 1.3857517643656113e+01 4.8673835137214629e+00 0 0 0
142 2 8.1208515425733783e+00 1.5872608453170841e+01 6.1697566240354211e+00 0 0 0
648 2 1.1257487951842394e+01 1.3814091287348395e+01 7.9035976567850330e+00 0 0 0
649 2 1.0005424885659567e+01 1.3828552543855862e+01 5.3040606690606671e+00 0 0 0
651 2 1.0620677160193699e+01 1.5843071071882470e+01 6.6069733660269145e+00 0 0 0
746 2 9.3702430841733957e+00 1.5858356434945698e+01 8.7691575239957675e+00 0 0 0
647 2 1.1871215432047308e+01 1.5828118096596809e+01 9.2072889241486067e+00 0 0 0
650 2 1.2511023768796340e+01 1.3799060906163962e+01 5.7421945972527197e+00 0 0 0
652 2 1.3122852970885011e+01 1.5812656911224851e+01 7.0458252723059669e+00 0 0 0
654 2 1.5020079629113983e+01 1.3769381206611698e+01 6.1824293901120999e+00 0 0 0
655 2 1.3764591220237676e+01 1.3784214155326184e+01 8.3427897050446518e+00 0 0 0
659 2 1.4374883629051986e+01 1.5796899264080650e+01 4.8845298219982931e+00 0 0 0
145 2 1.2542708826451681e+00 1.7972958930888893e+01 6.1644316664315166e+00 0 0 0
146 2 6.3033450058946228e-01 2.0006127537168169e+01 4.8654984884923040e+00 0 0 0
148 2 2.5002011467712411e+00 1.7959670828676906e+01 8.7633647673794677e+00 0 0 0
152 2 1.8741753180042733e+00 1.9992842460660714e+01 7.4649473691506438e+00 0 0 0
147 2 4.9926674901030310e+00 1.7932344402444386e+01 9.1990721486802887e+00 0 0 0
149 2 3.7463422479583097e+00 1.7946117135590399e+01 6.5998659421813768e+00 0 0 0
150 2 4.3622823998606979e+00 1.9965461403457002e+01 7.9016129578361323e+00 0 0 0
151 2 3.1181577636209306e+00 1.9979279244314611e+01 5.3019359241228967e+00 0 0 0
153 2 6.2393244247847726e+00 1.7918230825017098e+01 7.0359256399733967e+00 0 0 0
158 2 6.8511391496833269e+00 1.9936925051351579e+01 8.3388807893733716e+00 0 0 0
159 2 5.6066166510782445e+00 1.9951319445912766e+01 5.7388825737587910e+00 0 0 0
154 2 8.7335749582633007e+00 1.7889163633710794e+01 7.4728803984589263e+00 0 0 0
155 2 7.4863326479774717e+00 1.7903741874510366e+01 4.8730716186764234e+00 0 0 0
157 2 8.0959174814779509e+00 1.9922163179336934e+01 6.1765216292153697e+00 0 0 0
680 2 1.1229400816007910e+01 1.7858817211688198e+01 7.9110830888360004e+00 0 0 0
681 2 9.9813459748452171e+00 1.7873963152514776e+01 5.3106208749901862e+00 0 0 0
683 2 1.0586213211816807e+01 1.9891815422352582e+01 6.6150497508876036e+00 0 0 0
747 2 9.3409401128906833e+00 1.9907123210616820e+01 8.7769824194048010e+00 0 0 0
679 2 1.1831779626361973e+01 1.9876281923137363e+01 9.2160090346613615e+00 0 0 0
682 2 1.2477992135197457e+01 1.7843182463496319e+01 5.7493928604524083e+00 0 0 0
684 2 1.3077601771449784e+01 1.9860620325227099e+01 7.0545690752500247e+00 0 0 0
686 2 1.4976537751784949e+01 1.7811880146204054e+01 6.1896024787160746e+00 0 0 0
687 2 1.3727008871498743e+01 1.7827682401020400e+01 8.3506364233083499e+00 0 0 0
691 2 1.4323730136457167e+01 1.9844833966762216e+01 4.8934444136108670e+00 0 0 0
160 2 1.2492408208233081e+00 2.2027883983935844e+01 6.1661198788016724e+00 0 0 0
161 2 6.2567794313442548e-01 2.4064938858150043e+01 4.8668729289088546e+00 0 0 0
163 2 2.4908309349841735e+00 2.2014363218432347e+01 8.7662212216231890e+00 0 0 0
165 2 1.8647741723698683e+00 2.4051470869577511e+01 7.4675410015005843e+00 0 0 0
168 2 3.1039709997212284e+00 2.4037733977702022e+01 5.3056976003982532e+00 0 0 0
141 2 6.8220506897161002e+00 2.3994881894562688e+01 8.3458053620564474e+00 0 0 0
162 2 4.9743740012404460e+00 2.1986473291204010e+01 9.2041501660257072e+00 0 0 0
164 2 3.7325360205241154e+00 2.2000564179842115e+01 6.6038391728222168e+00 0 0 0
166 2 5.5826208760116636e+00 2.4009444037566464e+01 5.7448169319015143e+00 0 0 0
167 2 4.3432596002651920e+00 2.4023724870053414e+01 7.9065044933062776e+00 0 0 0
169 2 6.2163340537855820e+00 2.1972097961831754e+01 7.0420012945106034e+00 0 0 0
96 2 8.0615163853177343e+00 2.3980070744872314e+01 6.1843025444785722e+00 0 0 0
111 2 9.3010187332533398e+00 2.3965004511435016e+01 8.7854859866129420e+00 0 0 0
156 2 7.4584384570074835e+00 2.1957407752378511e+01 4.8800056851870437e+00 0 0 0
170 2 8.7006728701572946e+00 2.1942451254185094e+01 7.4807395938175940e+00 0 0 0
711 2 1.1185536244981648e+01 2.1911788127060419e+01 7.9201208912970005e+00 0 0 0
712 2 9.9430371928683883e+00 2.1927226279297084e+01 5.3190493698212746e+00 0 0 0
716 2 1.0540518812768578e+01 2.3949742149539730e+01 6.6241811565486097e+00 0 0 0
713 2 1.3670894576239791e+01 2.1880515721334223e+01 8.3602007068075128e+00 0 0 0
714 2 1.2428148042835078e+01 2.1896191371026958e+01 5.7587698244932355e+00 0 0 0
715 2 1.1780018312159561e+01 2.3934310533529668e+01 9.2255594719723248e+00 0 0 0
717 2 1.3019477486248128e+01 2.3918788716800176e+01 7.0644505553915042e+00 0 0 0
719 2 1.4913735763683606e+01 2.1864844032350721e+01 6.1992205096080060e+00 0 0 0
721 2 1.5498231894790925e+01 2.3887846995937576e+01 7.5050826708570426e+00 0 0 0
722 2 1.4258891474044857e+01 2.3903261783831205e+01 4.9034391252925538e+00 0 0 0
593 2 1.5570175159016387e+01 1.9829144557063792e+01 2.7326467714907130e+00 0 0 0
690 2 1.5570177713780307e+01 1.9829184063363563e+01 7.4952024885313442e+00 0 0 0
561 2 1.5627546655480552e+01 1.5781307284837112e+01 2.7236793757567632e+00 0 0 0
658 2 1.5627848162598330e+01 1.5781808268862623e+01 7.4865689979126397e+00 0 0 0
2849 2 6.6715744175958134e-03 1.3936870492068433e+01 3.5653366566147060e+00 1 0 0
2897 2 6.6619665005863632e-03 1.3936865400463612e+01 8.3278929963050476e+00 1 0 0
621 2 1.6156692966677259e+01 2.1849337604293606e+01 4.0384498030518294e+00 0 0 0
718 2 1.6156700016147180e+01 2.1849354617599964e+01 8.8010271952139281e+00 0 0 0
2865 2 8.4550043105053874e-03 1.7986030565884388e+01 3.5655952802141671e+00 1 0 0
2881 2 7.7618769254428344e-03 2.2041129099229536e+01 3.5661017335251928e+00 1 0 0
2913 2 8.4441587696346687e-03 1.7986038163675072e+01 8.3281602884976067e+00 1 0 0
2929 2 7.7602107018037714e-03 2.2041131183162577e+01 8.3286745932840791e+00 1 0 0
171 2 1.2400694653161513e+00 2.6090613710526032e+01 1.4059319837314161e+00 0 0 0
172 2 6.1652283866581992e-01 2.8131671090469741e+01 1.0663012049740656e-01 0 0 0
175 2 2.4768311643924723e+00 2.6076948308253854e+01 4.0071908524581286e+00 0 0 0
176 2 1.8510956878358524e+00 2.8118066008479495e+01 2.7083675057520891e+00 0 0 0
179 2 3.0857254445061049e+00 2.8104261089596822e+01 5.4755398409490008e-01 0 0 0
173 2 4.9505351339730970e+00 2.6048890266126687e+01 4.4472694101195103e+00 0 0 0
174 2 3.7136646638698507e+00 2.6063038053653319e+01 1.8459207821809007e+00 0 0 0
177 2 5.5549722578475249e+00 2.8076057795882502e+01 9.8856317617722289e-01 0 0 0
178 2 4.3203638897887924e+00 2.8090257229496036e+01 3.1493337014763929e+00 0 0 0
182 2 6.1874167544494885e+00 2.6034498206906658e+01 2.2860972615045378e+00 0 0 0
183 2 6.7895023229278317e+00 2.8061669251632242e+01 3.5903790212896305e+00 0 0 0
180 2 8.6610766028327699e+00 2.6005042814162991e+01 2.7264694336581567e+00 0 0 0
181 2 7.4242758271362073e+00 2.6019875730230339e+01 1.2497645294655488e-01 0 0 0
184 2 9.2581657659677390e+00 2.8032376768973151e+01 4.0314433651195198e+00 0 0 0
185 2 8.0239155496853840e+00 2.8047103010901374e+01 1.4296284809337709e+00 0 0 0
750 2 1.1134389018425647e+01 2.5974839699467029e+01 3.1669968761816620e+00 0 0 0
751 2 9.8977936743768105e+00 2.5990014940226580e+01 5.6543321287031034e-01 0 0 0
753 2 1.0492214710197489e+01 2.8017517325008473e+01 1.8706603043383287e+00 0 0 0
748 2 1.3607101029035048e+01 2.5944260381193729e+01 3.6076005417748815e+00 0 0 0
749 2 1.2370836551035859e+01 2.5959561072159140e+01 1.0060090703973548e+00 0 0 0
752 2 1.1726020654984103e+01 2.8002563470654131e+01 4.4724080073111550e+00 0 0 0
754 2 1.2959547577111136e+01 2.7987570893703705e+01 2.3115145898142173e+00 0 0 0
757 2 1.4843154848811302e+01 2.5929032286581116e+01 1.4466092268157356e+00 0 0 0
758 2 1.5425623570481983e+01 2.7957802490622495e+01 2.7520034881513156e+00 0 0 0
759 2 1.4192758814816873e+01 2.7972615898606598e+01 1.5053036899753916e-01 0 0 0
186 2 1.2265824066872320e+00 3.0160819643078685e+01 1.4092960975834861e+00 0 0 0
187 2 6.0307815537985410e-01 3.2204830682239908e+01 1.1002633219309635e-01 0 0 0
190 2 2.4594032602314395e+00 3.0147112233337044e+01 4.0114315043632152e+00 0 0 0
191 2 1.8346015657822716e+00 3.2191218860350702e+01 2.7124274564934168e+00 0 0 0
194 2 3.0660708615817280e+00 3.2177521000512307e+01 5.5226710064950957e-01 0 0 0
188 2 4.9249374680488804e+00 3.0119263325378924e+01 4.4531529031238337e+00 0 0 0
189 2 3.6922073168439749e+00 3.0133261427631986e+01 1.8510042760280065e+00 0 0 0
192 2 5.5286091792497514e+00 3.2149875281849212e+01 9.9451826515932018e-01 0 0 0
193 2 4.2974214856795800e+00 3.2163735305505753e+01 3.1546787448868767e+00 0 0 0
196 2 7.3899862197078647e+00 3.0090870946922365e+01 1.3228378436301316e-01 0 0 0
197 2 6.1575478621225930e+00 3.0105132112883329e+01 2.2927260746248574e+00 0 0 0
198 2 6.7595627697054717e+00 3.2135929091305542e+01 3.5968987529957643e+00 0 0 0
195 2 8.6221977424212533e+00 3.0076484099460025e+01 2.7343728212613505e+00 0 0 0
199 2 9.2205920494400893e+00 3.2107848491312531e+01 4.0389439432123355e+00 0 0 0
200 2 7.9902485462759580e+00 3.2121927930557902e+01 1.4366775358385533e+00 0 0 0
783 2 1.1085772042876709e+01 3.0047431151739517e+01 3.1757778804146657e+00 0 0 0
784 2 9.8541439983783192e+00 3.0062000226683686e+01 5.7383463573540172e-01 0 0 0
786 2 1.0450568864085755e+01 3.2093732736042341e+01 1.8785470714625270e+00 0 0 0
781 2 1.3547928701020295e+01 3.0018221950493928e+01 3.6167007274603811e+00 0 0 0
782 2 1.2317047956159222e+01 3.0032824405130203e+01 1.0150312223585167e+00 0 0 0
785 2 1.1680110351208832e+01 3.2079569703014222e+01 4.4805650395396901e+00 0 0 0
787 2 1.2909200208508524e+01 3.2065406839186444e+01 2.3198298061550422e+00 0 0 0
790 2 1.4778388403053253e+01 3.0003702987687351e+01 1.4556033014005103e+00 0 0 0
791 2 1.5365860777590713e+01 3.2037229461203133e+01 2.7601388922812706e+00 0 0 0
792 2 1.4137789886153225e+01 3.2051273845451711e+01 1.5884553216490480e-01 0 0 0
201 2 1.2112448302938752e+00 3.4236124909633666e+01 1.4131067343536394e+00 0 0 0
202 2 5.8929997469263273e-01 3.6281319185660706e+01 1.1343360751993024e-01 0 0 0
205 2 2.4419464296258830e+00 3.4222578372626380e+01 4.0156554670249092e+00 0 0 0
206 2 1.8198680685075170e+00 3.6267940449629947e+01 2.7159851153043673e+00 0 0 0
209 2 3.0502103574566619e+00 3.6254583247053056e+01 5.5598839965392977e-01 0 0 0
203 2 4.9028090072552457e+00 3.4195421431607897e+01 4.4582202458913640e+00 0 0 0