LAMMPS data file via write_data, version 11 Aug 2017, timestep = 1000

2713 atoms
2 atom types

0.0000000000000000e+00 8.3086255677384997e+01 xlo xhi
0.0000000000000000e+00 4.8738435450303001e+01 ylo yhi
0.0000000000000000e+00 8.1230725750499992e+00 zlo zhi

Masses

1 12.0107
2 55.845

Atoms # atomic

1 2 1.1840465323549751e+00 1.8775468355935931e+00 2.5441062825595391e+00 0 0 0
2 2 1.1842998177940909e+00 3.9060512465969541e+00 5.1143147928128363e-01 0 0 0
3 2 2.6553706858418682e+00 1.8780976285089490e+00 5.3025279171591821e-01 0 0 0
5 2 2.6559795618623032e+00 3.9065723763042985e+00 2.5581764544752854e+00 0 0 0
4 2 4.1267271424578400e+00 1.8790315023858024e+00 2.5778471056337788e+00 0 0 0
6 2 4.1277348343047713e+00 3.9073976469699176e+00 5.4328790872703703e-01 0 0 0
7 2 5.5981319904170590e+00 1.8803044925163932e+00 5.6380884815235022e-01 0 0 0
10 2 5.5996164079608644e+00 3.9085585201246555e+00 2.5897865017328869e+00 0 0 0
8 2 7.0696235925347439e+00 1.8819829134037649e+00 2.6111665426528563e+00 0 0 0
9 2 8.5412272315964994e+00 1.8840449820844549e+00 5.9683486861281076e-01 0 0 0
11 2 7.0716732875982027e+00 3.9100477309765407e+00 5.7456059841425278e-01 0 0 0
12 2 8.5439711190545626e+00 3.9118999913438866e+00 2.6206270078194005e+00 0 0 0
289 2 1.0013002770609681e+01 1.8865566399167804e+00 2.6438407732501856e+00 0 0 0
292 2 1.0016575214844710e+01 3.9141188634283393e+00 6.0486570733977407e-01 0 0 0
290 2 1.1484995035052108e+01 1.8895139541951325e+00 6.2908908314105538e-01 0 0 0
291 2 1.2957288121622065e+01 1.8929654187594620e+00 2.6756004177917747e+00 0 0 0
293 2 1.1489573738949757e+01 3.9167365391841167e+00 2.6502846139268699e+00 0 0 0
294 2 1.2963055741919359e+01 3.9197554272734618e+00 6.3374904679787525e-01 0 0 0
295 2 1.4429947738234176e+01 1.8969020877311944e+00 6.6026193639754382e-01 0 0 0
298 2 1.4437133171629048e+01 3.9231885897584209e+00 2.6782503987943955e+00 0 0 0
13 2 1.1845193954717566e+00 5.9340021957266114e+00 2.5405079496060301e+00 0 0 0
14 2 1.1846803854473127e+00 7.9615031000374934e+00 5.0829146063677844e-01 0 0 0
15 2 2.6564900513892886e+00 5.9344274194917537e+00 5.2495950542804237e-01 0 0 0
17 2 2.6568626694140836e+00 7.9618126480711222e+00 2.5537484253931710e+00 0 0 0
16 2 4.1285738913975409e+00 5.9351052667964339e+00 2.5708274099210020e+00 0 0 0
18 2 4.1291781924819446e+00 7.9622913393349473e+00 5.3753812448597893e-01 0 0 0
19 2 5.6008349571782166e+00 5.9360373429767082e+00 5.5498237302443576e-01 0 0 0
22 2 5.6017081213799234e+00 7.9629329550538044e+00 2.5826667198860171e+00 0 0 0
20 2 7.0733481709053683e+00 5.9372370890665902e+00 2.6004338246394729e+00 0 0 0
21 2 8.5461912966801457e+00 5.9387121069043909e+00 5.8404588950985392e-01 0 0 0
23 2 7.0745347630743192e+00 7.9637513755099221e+00 5.6598769775420066e-01 0 0 0
24 2 8.5477567031168959e+00 7.9647429844228093e+00 2.6104997725202241e+00 0 0 0
319 2 1.0019458833926986e+01 5.9404772262545356e+00 2.6288196146801535e+00 0 0 0
322 2 1.0021476166845474e+01 7.9659210280644430e+00 5.9304731990056259e-01 0 0 0
320 2 1.1493250951283025e+01 5.9425414924272744e+00 6.1160692681021045e-01 0 0 0
321 2 1.2967687992059082e+01 5.9449139072709700e+00 2.6553944256527711e+00 0 0 0
323 2 1.1495816784724623e+01 7.9672819482841417e+00 2.6366171353629246e+00 0 0 0
324 2 1.2970906992030235e+01 7.9688342294065944e+00 6.1803962163401482e-01 0 0 0
325 2 1.4442895791278824e+01 5.9475931319409359e+00 6.3701530642633730e-01 0 0 0
328 2 1.4446898355644645e+01 7.9705697788451904e+00 2.6602810803773171e+00 0 0 0
25 2 1.1847708028405370e+00 9.9887023338173702e+00 2.5378633856432038e+00 0 0 0
26 2 1.1847830304966129e+00 1.2015790151718756e+01 5.0613358979096212e-01 0 0 0
27 2 2.6570688143991203e+00 9.9888945598390393e+00 5.2151947360760698e-01 0 0 0
29 2 2.6571032931951644e+00 1.2015830407191578e+01 2.5513631125254541e+00 0 0 0
28 2 4.1295113160026133e+00 9.9891385180388461e+00 2.5665841093075610e+00 0 0 0
30 2 4.1295509820849370e+00 1.2015875284239121e+01 5.3492210197273016e-01 0 0 0
31 2 5.6021769366680836e+00 9.9894639958461529e+00 5.4990199959045216e-01 0 0 0
34 2 5.6022225928424767e+00 1.2015847667950789e+01 2.5798262631176905e+00 0 0 0
32 2 7.0751644839464722e+00 9.9898413294080548e+00 2.5944757779707772e+00 0 0 0
33 2 8.5485687127776515e+00 9.9902961074499679e+00 5.7714364117356998e-01 0 0 0
35 2 7.0751929484583274e+00 1.2015808964881611e+01 5.6290542655478004e-01 0 0 0
36 2 8.5485855346083248e+00 1.2015685937949021e+01 2.6071655418185329e+00 0 0 0
349 2 1.0022513192079192e+01 9.9908009023864146e+00 2.6208978719195395e+00 0 0 0
352 2 1.0022496155901287e+01 1.2015524530848877e+01 5.8943037602584691e-01 0 0 0
350 2 1.1497117526389802e+01 9.9913742686525975e+00 6.0256697938583670e-01 0 0 0
351 2 1.2972534677679866e+01 9.9919928205638335e+00 2.6451276167973301e+00 0 0 0
353 2 1.1497081284299025e+01 1.2015261136566856e+01 2.6326924692442812e+00 0 0 0
354 2 1.2972467609056885e+01 1.2014925543884209e+01 6.1376501186687549e-01 0 0 0
355 2 1.4448914840166948e+01 9.9926667707070038e+00 6.2538861339080876e-01 0 0 0
358 2 1.4448833962240604e+01 1.2014482939329204e+01 2.6556157602167891e+00 0 0 0
37 2 1.1840476163685245e+00 1.8775609613308450e+00 6.6056505058243467e+00 0 0 0
38 2 1.1843010658369009e+00 3.9060722700832602e+00 4.5729671881394252e+00 0 0 0
39 2 2.6553754630926769e+00 1.8781413869627697e+00 4.5917873044252682e+00 0 0 0
41 2 2.6559800379574172e+00 3.9065804580619212e+00 6.6197161122220791e+00 0 0 0
40 2 4.1267290775320244e+00 1.8790455826934838e+00 6.6393906587091562e+00 0 0 0
42 2 4.1277373388474761e+00 3.9074166575401859e+00 4.6048236857518541e+00 0 0 0
43 2 5.5981398089698233e+00 1.8803426592266086e+00 4.6253436541328146e+00 0 0 0
46 2 5.5996171573419486e+00 3.9085661949557049e+00 6.6513257778679087e+00 0 0 0
44 2 7.0696263842289309e+00 1.8819959399627542e+00 6.6727090922399181e+00 0 0 0
45 2 8.5412374783571359e+00 1.8840759126650439e+00 4.6583700433626936e+00 0 0 0
47 2 7.0716767828379190e+00 3.9100637659784705e+00 4.6360964758741101e+00 0 0 0
48 2 8.5439721255686631e+00 3.9119067798202036e+00 6.6821657793502798e+00 0 0 0
379 2 1.0013006345571107e+01 1.8865677840944064e+00 6.7053821375850751e+00 0 0 0
382 2 1.0016579341302814e+01 3.9141313824677462e+00 4.6664016993961930e+00 0 0 0
380 2 1.1485005900591117e+01 1.8895361528939290e+00 4.6906246511085712e+00 0 0 0
381 2 1.2957291642097298e+01 1.8929735229757072e+00 6.7371400021211505e+00 0 0 0
383 2 1.1489574930868608e+01 3.9167420848216028e+00 6.7118228246049041e+00 0 0 0
384 2 1.2963059746562406e+01 3.9197640494509680e+00 4.6952851544789764e+00 0 0 0
385 2 1.4429952599237080e+01 1.8969112362900848e+00 4.7217976291081118e+00 0 0 0
388 2 1.4437134239746934e+01 3.9231925109030237e+00 6.7397878916020613e+00 0 0 0
49 2 1.1845192969188709e+00 5.9340095495221634e+00 6.6020456508055814e+00 0 0 0
50 2 1.1846805901346200e+00 7.9615097749465393e+00 4.5698292792625841e+00 0 0 0
51 2 2.6564908180203375e+00 5.9344374173451451e+00 4.5864961413941225e+00 0 0 0
53 2 2.6568617672115544e+00 7.9618236597540539e+00 6.6152849784816228e+00 0 0 0
52 2 4.1285737035047587e+00 5.9351122579188909e+00 6.6323649930233870e+00 0 0 0
54 2 4.1291785451873855e+00 7.9622972686355578e+00 4.5990758091898032e+00 0 0 0
55 2 5.6008361549584675e+00 5.9360460824726191e+00 4.6165189753378320e+00 0 0 0
58 2 5.6017067859214817e+00 7.9629428390061188e+00 6.6442032357588205e+00 0 0 0
56 2 7.0733479490342699e+00 5.9372433470012540e+00 6.6619712220959491e+00 0 0 0
57 2 8.5461927962300894e+00 5.9387192448889907e+00 4.6455824487448849e+00 0 0 0
59 2 7.0745352525519696e+00 7.9637563373992908e+00 4.6275251835373910e+00 0 0 0
60 2 8.5477550859743641e+00 7.9647513100588876e+00 6.6720362391898886e+00 0 0 0
409 2 1.0019458615733384e+01 5.9404824652860855e+00 6.6903567899282459e+00 0 0 0
412 2 1.0021476742853672e+01 7.9659249447485978e+00 4.6545845688845340e+00 0 0 0
410 2 1.1493252580065876e+01 5.9425468963831021e+00 4.6731434359459190e+00 0 0 0
411 2 1.2967687804182255e+01 5.9449179523543290e+00 6.7169313628942344e+00 0 0 0
413 2 1.1495815057122057e+01 7.9672884564160986e+00 6.6981535417641656e+00 0 0 0
414 2 1.2970907505924698e+01 7.9688372063634620e+00 4.6795766183020167e+00 0 0 0
415 2 1.4442897228464783e+01 5.9475967920837505e+00 4.6985517601380558e+00 0 0 0
418 2 1.4446896847693861e+01 7.9705742631600005e+00 6.7218174221393783e+00 0 0 0
61 2 1.1847690910196094e+00 9.9887250725946259e+00 6.5993989980331138e+00 0 0 0
62 2 1.1847829955893727e+00 1.2015802356555536e+01 4.5676781523724168e+00 0 0 0
63 2 2.6570688390938115e+00 9.9889012602579719e+00 4.5830593091105643e+00 0 0 0
65 2 2.6570972317704302e+00 1.2015877497123807e+01 6.6128973600635659e+00 0 0 0
64 2 4.1295082676740043e+00 9.9891592725743585e+00 6.6281197560663045e+00 0 0 0
66 2 4.1295508143890522e+00 1.2015885411902085e+01 4.5964658737613018e+00 0 0 0
67 2 5.6021769813573732e+00 9.9894695742095347e+00 4.6114414092279645e+00 0 0 0
70 2 5.6022133999563666e+00 1.2015888919885313e+01 6.6413606620024259e+00 0 0 0
68 2 7.0751604137248361e+00 9.9898590640820242e+00 6.6560114857677171e+00 0 0 0
69 2 8.5485688225071872e+00 9.9903005292731439e+00 4.6386824992068130e+00 0 0 0
71 2 7.0751928749826662e+00 1.2015816913668935e+01 4.6244480665174255e+00 0 0 0
72 2 8.5485739524500968e+00 1.2015719558937892e+01 6.6687001299813069e+00 0 0 0
439 2 1.0022508500572348e+01 9.9908149819588168e+00 6.6824336436943907e+00 0 0 0
442 2 1.0022495615670531e+01 1.2015531110419742e+01 4.6509716520907052e+00 0 0 0
440 2 1.1497117470349020e+01 9.9913778320811950e+00 4.6641052154263827e+00 0 0 0
441 2 1.2972530262318227e+01 9.9920026164467028e+00 6.7066634314414157e+00 0 0 0
443 2 1.1497069559344713e+01 1.2015285151671893e+01 6.6942271570801468e+00 0 0 0
444 2 1.2972465332678286e+01 1.2014931999216607e+01 4.6753043427873262e+00 0 0 0
445 2 1.4448914216454121e+01 9.9926698822556741e+00 4.6869260742089320e+00 0 0 0
448 2 1.4448828661909888e+01 1.2014493041661035e+01 6.7171509574361954e+00 0 0 0
296 2 1.5903060210927880e+01 1.9013265914224264e+00 2.7060797185954937e+00 0 0 0
299 2 1.5911916344589045e+01 3.9270231122116970e+00 6.6062938233464552e-01 0 0 0
326 2 1.5919018993400373e+01 5.9505696669730765e+00 2.6794313717062890e+00 0 0 0
329 2 1.5923947991901075e+01 7.9724827608790108e+00 6.4014537353447920e-01 0 0 0
356 2 1.5926434865167977e+01 9.9933801453826323e+00 2.6662988987478422e+00 0 0 0
359 2 1.5926340286376464e+01 1.2013952663165449e+01 6.3503648038092853e-01 0 0 0
386 2 1.5903062087674810e+01 1.9013306551731020e+00 6.7676173261444950e+00 0 0 0
389 2 1.5911918208311993e+01 3.9270268861418023e+00 4.7221655293210025e+00 0 0 0
416 2 1.5919018838531214e+01 5.9505723750111859e+00 6.7409680376538459e+00 0 0 0
419 2 1.5923948224577298e+01 7.9724849402307996e+00 4.7016820759789404e+00 0 0 0
446 2 1.5926432794769553e+01 9.9933845694784083e+00 6.7278348705853173e+00 0 0 0
449 2 1.5926338832715521e+01 1.2013956235092419e+01 4.6965739281968570e+00 0 0 0
73 2 1.1847305777357762e+00 1.4042868312419051e+01 2.5361561984135483e+00 0 0 0
74 2 1.1846129195210362e+00 1.6070230097664478e+01 5.0475318327053109e-01 0 0 0
75 2 2.6569634163202887e+00 1.4042864872798258e+01 5.2015975644849188e-01 0 0 0
77 2 2.6567063470413292e+00 1.6070019282017849e+01 2.5509436275987416e+00 0 0 0
76 2 4.1293183254899386e+00 1.4042652620176160e+01 2.5656158845195165e+00 0 0 0
78 2 4.1288112237266787e+00 1.6069807436043842e+01 5.3547039849095546e-01 0 0 0
79 2 5.6018330296426493e+00 1.4042387365866455e+01 5.4933389253253506e-01 0 0 0
82 2 5.6010879422832298e+00 1.6069193741843804e+01 2.5814346188344386e+00 0 0 0
80 2 7.0746376169851750e+00 1.4041897226089711e+01 2.5943504264667485e+00 0 0 0
81 2 8.5477782746138065e+00 1.4041307300832043e+01 5.7747378579213371e-01 0 0 0
83 2 7.0734785586086222e+00 1.6068518492505287e+01 5.6559755429645731e-01 0 0 0
84 2 8.5462274238082596e+00 1.6067408069206234e+01 2.6110480942712622e+00 0 0 0
469 2 1.0021431043369059e+01 1.4040462448462986e+01 2.6217270798722452e+00 0 0 0
472 2 1.0019305894103889e+01 1.6066098204033004e+01 5.9455506390144075e-01 0 0 0
470 2 1.1495674961502152e+01 1.4039444794606341e+01 6.0391531023373424e-01 0 0 0
471 2 1.2970702156988702e+01 1.4038159288484767e+01 2.6470389809168560e+00 0 0 0
473 2 1.1492974004339120e+01 1.6064341151750202e+01 2.6391776715049118e+00 0 0 0
474 2 1.2967292001160839e+01 1.6062243335587212e+01 6.2169989826320393e-01 0 0 0
475 2 1.4446638261019036e+01 1.4036649125299238e+01 6.2789548802838668e-01 0 0 0
478 2 1.4442432664261322e+01 1.6059751325311385e+01 2.6651293478515692e+00 0 0 0
85 2 1.1845258799517755e+00 1.8097626825633512e+01 2.5349807028536171e+00 0 0 0
86 2 1.1843834116816863e+00 2.0125890434211161e+01 5.0340525599296582e-01 0 0 0
87 2 2.6563111864928151e+00 1.8097757635488293e+01 5.2042964692441318e-01 0 0 0
89 2 2.6561510541703548e+00 2.0125298943477070e+01 2.5517106074968288e+00 0 0 0
88 2 4.1282060351795522e+00 1.8097178743841141e+01 2.5674930255052697e+00 0 0 0
90 2 4.1273001810136174e+00 2.0125667609483735e+01 5.3820632644658362e-01 0 0 0
91 2 5.5988070114143698e+00 2.0124671544457346e+01 2.5864695332434020e+00 0 0 0
92 2 5.5999241829163537e+00 1.8096794818478791e+01 5.5280274238207605e-01 0 0 0
93 2 7.0719091164531083e+00 1.8095687862393795e+01 2.5995940581888051e+00 0 0 0
94 2 8.5438606157077341e+00 1.8094537634778813e+01 5.8452013876929532e-01 0 0 0
95 2 7.0696169720554236e+00 2.0124278418174342e+01 5.7282154496520987e-01 0 0 0
96 2 8.5409375185115106e+00 2.0122687870180723e+01 2.6207771468784031e+00 0 0 0
499 2 1.0016269711509741e+01 1.8092688894078673e+01 2.6307726592403524e+00 0 0 0
502 2 1.0012352408363213e+01 2.0120698176323806e+01 6.0684084961832152e-01 0 0 0
500 2 1.1489056351356123e+01 1.8090429522390746e+01 6.1506962041938618e-01 0 0 0
501 2 1.2962419025662452e+01 1.8087618206309511e+01 2.6604983496542474e+00 0 0 0
503 2 1.1484161030756274e+01 2.0117976711401056e+01 2.6542669745681553e+00 0 0 0
504 2 1.2956334089614138e+01 2.0114682998135958e+01 6.3980850032452297e-01 0 0 0
505 2 1.4436420856313784e+01 1.8084333403318450e+01 6.4385260659961863e-01 0 0 0
508 2 1.4428954529420947e+01 2.0110811787665511e+01 2.6865465986961814e+00 0 0 0
97 2 1.1849750301536093e+00 2.2152728266650509e+01 2.5333381545053242e+00 0 0 0
98 2 1.1849580967530999e+00 2.4182884130376632e+01 5.0015856005999748e-01 0 0 0
99 2 2.6556772199495913e+00 2.2154581133794956e+01 5.2098736402692980e-01 0 0 0
103 2 2.6584620413656133e+00 2.4179608099503177e+01 2.5524080319766154e+00 0 0 0
100 2 4.1273401161517933e+00 2.2153337096118513e+01 2.5709513443938046e+00 0 0 0
101 2 5.5966997294983170e+00 2.2154765989938845e+01 5.5864196784121944e-01 0 0 0
102 2 4.1251646462526139e+00 2.4185386599649586e+01 5.4121167255653924e-01 0 0 0
104 2 5.5948310822660963e+00 2.4185201676321853e+01 2.5931753112856470e+00 0 0 0
105 2 7.0671214909863682e+00 2.2153736444184926e+01 2.6084142713643308e+00 0 0 0
106 2 8.5373134923026708e+00 2.2152452155468993e+01 5.9615610298242594e-01 0 0 0
107 2 7.0638556648119062e+00 2.4185112770654143e+01 5.8248248268280423e-01 0 0 0
108 2 8.5333733375808478e+00 2.4183572719282513e+01 2.6337035384763601e+00 0 0 0
529 2 1.0007845922375179e+01 2.2150175801512066e+01 2.6455055211308527e+00 0 0 0
532 2 1.0002959530541515e+01 2.4181273754842501e+01 6.2308443549809733e-01 0 0 0
530 2 1.1478536627981786e+01 2.2147247199191369e+01 6.3307271415725896e-01 0 0 0
531 2 1.2949423084238251e+01 2.2143664584894669e+01 2.6820585186768140e+00 0 0 0
533 2 1.2942154832821091e+01 2.4174651362247818e+01 6.6338084139773446e-01 0 0 0
534 2 1.1472566797593897e+01 2.4178287905534475e+01 2.6740361058281286e+00 0 0 0
535 2 1.4420507014567704e+01 2.2139474933701120e+01 6.6930920638743696e-01 0 0 0
539 2 1.4411658003950627e+01 2.4170443886735725e+01 2.7142805104277619e+00 0 0 0
109 2 1.1847196854863999e+00 1.4042976486020040e+01 6.5976875969034641e+00 0 0 0
110 2 1.1846138592871032e+00 1.6070282544315674e+01 4.5663305004844368e+00 0 0 0
111 2 2.6569633152971286e+00 1.4042887364630081e+01 4.5817136461375760e+00 0 0 0
113 2 2.6566645634997386e+00 1.6070251151420209e+01 6.6124688956614666e+00 0 0 0
112 2 4.1292983335321418e+00 1.4042750362970381e+01 6.6271474787808700e+00 0 0 0
114 2 4.1288131943937101e+00 1.6069848642669577e+01 4.5970440951452147e+00 0 0 0
115 2 5.6018332209328223e+00 1.4042404992465848e+01 4.6108856288086670e+00 0 0 0
118 2 5.6010198043446531e+00 1.6069397680027624e+01 6.6429600363259755e+00 0 0 0
116 2 7.0746094596689257e+00 1.4041979703942140e+01 6.6558823111573622e+00 0 0 0
117 2 8.5477772296157148e+00 1.4041322138438305e+01 4.6390227461940201e+00 0 0 0
119 2 7.0734774529304856e+00 1.6068553775105414e+01 4.6271661246094968e+00 0 0 0
120 2 8.5461436382072655e+00 1.6067567488627201e+01 6.6725723469376845e+00 0 0 0
559 2 1.0021399910918973e+01 1.4040523709314739e+01 6.6832589266750730e+00 0 0 0
562 2 1.0019287561664362e+01 1.6066140691491519e+01 4.6561114371494252e+00 0 0 0
560 2 1.1495668463590947e+01 1.4039460855151617e+01 4.6654593824206581e+00 0 0 0
561 2 1.2970689003135890e+01 1.4038183382392020e+01 6.7085721676030552e+00 0 0 0
563 2 1.1492941563751252e+01 1.6064399095473672e+01 6.7007055096203842e+00 0 0 0
564 2 1.2967281496343256e+01 1.6062264416425375e+01 4.6832427419518092e+00 0 0 0
565 2 1.4446634278976360e+01 1.4036657531179561e+01 4.6894345580259875e+00 0 0 0
568 2 1.4442423994017680e+01 1.6059767231023585e+01 6.7266622232066915e+00 0 0 0
121 2 1.1844444976616695e+00 1.8098174919635408e+01 6.5964918212428199e+00 0 0 0
122 2 1.1844165036591472e+00 2.0126118135090373e+01 4.5651567400636575e+00 0 0 0
123 2 2.6563202548010199e+00 1.8097854709595961e+01 4.5820560449533003e+00 0 0 0
125 2 2.6557658852506947e+00 2.0126551344953587e+01 6.6131840270915960e+00 0 0 0
124 2 4.1280425010516391e+00 1.8097684207429655e+01 6.6290029575588250e+00 0 0 0
126 2 4.1273181097397655e+00 2.0125868147163150e+01 4.5999546103184121e+00 0 0 0
127 2 5.5981756425662983e+00 2.0125795832750896e+01 6.6479160286126389e+00 0 0 0
128 2 5.5999260115770166e+00 1.8096879250482907e+01 4.6144217224243125e+00 0 0 0
129 2 7.0716804671032625e+00 1.8096108623194780e+01 6.6610976377315678e+00 0 0 0
130 2 8.5438082509516882e+00 1.8094652861443674e+01 4.6461085051607673e+00 0 0 0
131 2 7.0694653507019360e+00 2.0124595563629146e+01 4.6344936578504994e+00 0 0 0
132 2 8.5407477286726454e+00 2.0123014377212360e+01 6.6822510476500581e+00 0 0 0
589 2 1.0016190495643876e+01 1.8092827533438349e+01 6.6922859817937184e+00 0 0 0
592 2 1.0012279904740947e+01 2.0120835803380626e+01 4.6684114825143483e+00 0 0 0
590 2 1.1489028696252520e+01 1.8090483331100319e+01 4.6766211389261043e+00 0 0 0
591 2 1.2962399985418822e+01 1.8087653046304613e+01 6.7220259326767939e+00 0 0 0
593 2 1.1484120766256604e+01 2.0118051001413392e+01 6.7157814187262916e+00 0 0 0
594 2 1.2956312918213330e+01 2.0114724099044100e+01 4.7013510233913287e+00 0 0 0
595 2 1.4436412018667868e+01 1.8084350709146914e+01 4.7053921316419078e+00 0 0 0
598 2 1.4428946756936917e+01 2.0110828088557930e+01 6.7480772439624621e+00 0 0 0
133 2 1.1841076854371766e+00 2.2155828182602789e+01 6.5947291545909756e+00 0 0 0
134 2 1.1852423938927050e+00 2.4183950317560367e+01 4.5630369958267174e+00 0 0 0
135 2 2.6535697356654366e+00 2.4187881082036142e+01 6.6132431184480964e+00 0 0 0
137 2 2.6557585345944417e+00 2.2155050459096465e+01 4.5830636690250799e+00 0 0 0
136 2 5.5938751037011318e+00 2.4186837562483056e+01 6.6542552614307624e+00 0 0 0
138 2 4.1255820496428228e+00 2.2156373294980831e+01 6.6322381902561407e+00 0 0 0
139 2 5.5962564257455512e+00 2.2155648446513005e+01 4.6205341172367689e+00 0 0 0
140 2 4.1238570542770772e+00 2.4187863211266730e+01 4.6036816346193126e+00 0 0 0
141 2 8.5332287967440390e+00 2.4183866299943642e+01 6.6951111054344015e+00 0 0 0
142 2 7.0666820606031546e+00 2.2154484103726684e+01 6.6697815024736977e+00 0 0 0
143 2 8.5371251549543956e+00 2.2152802023694655e+01 4.6577660815625750e+00 0 0 0
144 2 7.0633738173862701e+00 2.4185990807209031e+01 4.6441629757342451e+00 0 0 0
620 2 1.0007765733269979e+01 2.2150327860971633e+01 6.7069880570643079e+00 0 0 0
623 2 1.0002846580265404e+01 2.4181493578763423e+01 4.6846353788488457e+00 0 0 0
619 2 1.1472543635472011e+01 2.4178346921493965e+01 6.7355450112229311e+00 0 0 0
621 2 1.1478486972000399e+01 2.2147343407275841e+01 4.6946197359399404e+00 0 0 0
622 2 1.2949408998270988e+01 2.2143696253661219e+01 6.7435821010111345e+00 0 0 0
624 2 1.2942132888512813e+01 2.4174700793816491e+01 4.7249186439728597e+00 0 0 0
625 2 1.4411653875932098e+01 2.4170456983041984e+01 6.7758116744581915e+00 0 0 0
627 2 1.4420496378141891e+01 2.2139497978540060e+01 4.7308469890319484e+00 0 0 0
476 2 1.5923660761374649e+01 1.4034901494563348e+01 2.6694463301946603e+00 0 0 0
479 2 1.5918517441665038e+01 1.6056912047158097e+01 6.4626018649525585e-01 0 0 0
506 2 1.5911180919917712e+01 1.8080582530459935e+01 2.6881379808886674e+00 0 0 0
509 2 1.5902077416571686e+01 2.0106407084407149e+01 6.7131592019157726e-01 0 0 0
536 2 1.5891795947724509e+01 2.2134724554841636e+01 2.7179086997312818e+00 0 0 0
538 2 1.5881053144571851e+01 2.4165679884030457e+01 7.0367404762806141e-01 0 0 0
566 2 1.5923656904441293e+01 1.4034908662561076e+01 6.7309813232277866e+00 0 0 0
569 2 1.5918513798118834e+01 1.6056919314653950e+01 4.7077980597791420e+00 0 0 0
596 2 1.5911176899147755e+01 1.8080590638789115e+01 6.7496718438738323e+00 0 0 0
599 2 1.5902072466514003e+01 2.0106417547908858e+01 4.7328532430858665e+00 0 0 0
628 2 1.5891793369988015e+01 2.2134731553451243e+01 6.7794423964706274e+00 0 0 0
630 2 1.5881049286908471e+01 2.4165690765042225e+01 4.7652105658232573e+00 0 0 0
145 2 1.1859776025910731e+00 2.8243292958728841e+01 4.8905668035638489e-01 0 0 0
146 2 1.1947377577962155e+00 2.6198288148346478e+01 2.5300055739660534e+00 0 0 0
147 2 2.6551118609874491e+00 2.6215389580386489e+01 5.1936415293279392e-01 0 0 0
151 2 2.6533217467278485e+00 2.8246890894155669e+01 2.5522361486474896e+00 0 0 0
148 2 5.5917281630788152e+00 2.6218174107766806e+01 5.6558189948712045e-01 0 0 0
149 2 4.1205761213371783e+00 2.8251216144126381e+01 5.4561475926224479e-01 0 0 0
150 2 4.1239193719700733e+00 2.6216455731102702e+01 2.5747545050982401e+00 0 0 0
152 2 5.5883419708817534e+00 2.8251996445024979e+01 2.6012164976773304e+00 0 0 0
153 2 8.5292931941423138e+00 2.6216093451152233e+01 6.0980239991072838e-01 0 0 0
154 2 7.0570937868600030e+00 2.8251174352814665e+01 5.9384578688090006e-01 0 0 0
155 2 7.0604106891427314e+00 2.6217640044937514e+01 2.6187817991944424e+00 0 0 0
156 2 8.5254119640750456e+00 2.8249829908105625e+01 2.6478899289378868e+00 0 0 0
650 2 9.9936356370486656e+00 2.8247739676900107e+01 6.4014802409440164e-01 0 0 0
652 2 9.9980610604850746e+00 2.6213891047076885e+01 2.6624407438796345e+00 0 0 0
649 2 1.1466703412779458e+01 2.6211001229474753e+01 6.5346268626625381e-01 0 0 0
651 2 1.2928672296643917e+01 2.8242270419600001e+01 6.8653123342816369e-01 0 0 0
653 2 1.2935050431632778e+01 2.6207594650408911e+01 2.7061282916035427e+00 0 0 0
654 2 1.1461394092783477e+01 2.8245247670853669e+01 2.6940210911647764e+00 0 0 0
655 2 1.4403055226037186e+01 2.6203648997202176e+01 6.9741167124791681e-01 0 0 0
659 2 1.4395332459513742e+01 2.8238889885779916e+01 2.7409088025855737e+00 0 0 0
157 2 1.1848002661383201e+00 3.2322744266257594e+01 5.5412669603994669e-01 0 0 0
158 2 1.1745806923808899e+00 3.0271958853894063e+01 2.5269107379128903e+00 0 0 0
159 2 2.6511451718538495e+00 3.0284817574171385e+01 5.2561190323129225e-01 0 0 0
163 2 2.6411646697326838e+00 3.2317209993416924e+01 2.5862601859366494e+00 0 0 0
160 2 5.5859376226953783e+00 3.0286168435271779e+01 5.7739236572905939e-01 0 0 0
161 2 4.1169787244649392e+00 3.2321514756064708e+01 5.7216406811855047e-01 0 0 0
162 2 4.1159169616376650e+00 3.0286082889479296e+01 2.5836237143282128e+00 0 0 0
164 2 5.5840583240790025e+00 3.2320626848193825e+01 2.6207270502361149e+00 0 0 0
165 2 8.5224239572571410e+00 3.0284279180977880e+01 6.2488819133125695e-01 0 0 0
166 2 7.0530312736289549e+00 3.2320368654992706e+01 6.1094686262428233e-01 0 0 0
168 2 7.0540841660453575e+00 3.0285577041099973e+01 2.6321474939091880e+00 0 0 0
169 2 8.5206136147698679e+00 3.2319474570526808e+01 2.6636726761131579e+00 0 0 0
681 2 9.9900521542958085e+00 3.0282691497801256e+01 2.6791887403428500e+00 0 0 0
823 2 9.9878766119844791e+00 3.2318425562537662e+01 6.5581789042287808e-01 0 0 0
679 2 1.1457149912454794e+01 3.0280705892690236e+01 6.7215420228326284e-01 0 0 0
680 2 1.2920037836349966e+01 3.2315704246259912e+01 7.0383366581939166e-01 0 0 0
682 2 1.2923518755476760e+01 3.0278426070662093e+01 2.7270431924614482e+00 0 0 0
683 2 1.1454348201066136e+01 3.2317161517388051e+01 2.7102269234907159e+00 0 0 0
684 2 1.4389080519098385e+01 3.0275824551123289e+01 7.2091291512807876e-01 0 0 0
688 2 1.4384776854492044e+01 3.2314066262657825e+01 2.7597410852218682e+00 0 0 0
170 2 1.1824393297541840e+00 3.6393888943584699e+01 5.3440735117765670e-01 0 0 0
171 2 1.1768989503160365e+00 3.4350733044687253e+01 2.5660972785704939e+00 0 0 0
172 2 2.6516018057592197e+00 3.4358584192272247e+01 5.5780190633980531e-01 0 0 0
176 2 2.6509442625964539e+00 3.6392180530466781e+01 2.5830929651005885e+00 0 0 0
173 2 5.5860060427592089e+00 3.4356536603006383e+01 5.9501233575026802e-01 0 0 0
174 2 4.1201226765843186e+00 3.6393183427170477e+01 5.7462262891079141e-01 0 0 0
175 2 4.1162569751565066e+00 3.4355008910180651e+01 2.6053768540631697e+00 0 0 0
177 2 5.5868010898108933e+00 3.6391431865331008e+01 2.6254180756506016e+00 0 0 0
178 2 8.5205458802843488e+00 3.4355349891398980e+01 6.3744349083485108e-01 0 0 0
179 2 7.0546662549311874e+00 3.6391795597339438e+01 6.1643788504696806e-01 0 0 0
181 2 7.0530172920296081e+00 3.4355563165679925e+01 2.6462396231862058e+00 0 0 0
183 2 8.5213950961691047e+00 3.6391420725922032e+01 2.6691132739423593e+00 0 0 0
825 2 9.9880006560787198e+00 3.6391606667336987e+01 6.6121459299389140e-01 0 0 0
826 2 9.9871822973383875e+00 3.4354802256426588e+01 2.6909276184738502e+00 0 0 0
708 2 1.1453269182090235e+01 3.4354312991358960e+01 6.8378973067818460e-01 0 0 0
709 2 1.2918951392864464e+01 3.6392146536636133e+01 7.0912630605591664e-01 0 0 0
710 2 1.2918488423748308e+01 3.4353753508687603e+01 2.7390068744599243e+00 0 0 0
711 2 1.1453836016821871e+01 3.6391785939025020e+01 2.7155182716171788e+00 0 0 0
712 2 1.4382746491084268e+01 3.4353156469251978e+01 7.3356798834022741e-01 0 0 0
716 2 1.4383100752581919e+01 3.6392593683395326e+01 2.7651182597046660e+00 0 0 0
184 2 1.1812706796764301e+00 2.6221003842303613e+01 6.5894506507110213e+00 0 0 0
185 2 1.1751376110771128e+00 2.8263786411162368e+01 4.5583239743801203e+00 0 0 0
187 2 2.6516867841216722e+00 2.8253353517154459e+01 6.6113743694265157e+00 0 0 0
189 2 2.6512024243232211e+00 2.6222392003873427e+01 4.5833898592233746e+00 0 0 0
186 2 4.1221030162379044e+00 2.6219793826844299e+01 6.6350461585577234e+00 0 0 0
188 2 5.5882968122298688e+00 2.8252935584994106e+01 6.6621410421800151e+00 0 0 0
190 2 5.5905228535679123e+00 2.6220333841241743e+01 4.6273528023273780e+00 0 0 0
191 2 4.1174552839001901e+00 2.8256293542854149e+01 4.6071814878881447e+00 0 0 0
192 2 7.0602034472890853e+00 2.6218168323021636e+01 6.6800253310140532e+00 0 0 0
193 2 8.5253942354044057e+00 2.8250026726179335e+01 6.7093176755372799e+00 0 0 0
194 2 8.5290456802823336e+00 2.6216577501346958e+01 4.6713455614373220e+00 0 0 0
195 2 7.0565537273525640e+00 2.8252169053944147e+01 4.6553067900574154e+00 0 0 0
736 2 9.9980298719935448e+00 2.6213997404127088e+01 6.7239215594888755e+00 0 0 0
740 2 9.9935553775926813e+00 2.8247938791136150e+01 4.7016745803577198e+00 0 0 0
737 2 1.2935044573001855e+01 2.6207618870917432e+01 6.7676551181024163e+00 0 0 0
738 2 1.1461388283811823e+01 2.8245293682175340e+01 6.7555411877249094e+00 0 0 0
739 2 1.1466660385684843e+01 2.6211103345298131e+01 4.7149984712780455e+00 0 0 0
741 2 1.2928660977208111e+01 2.8242312736817933e+01 4.7480667966036023e+00 0 0 0
743 2 1.4395331017114103e+01 2.8238901041471237e+01 6.8024427717453309e+00 0 0 0
745 2 1.4403048368825321e+01 2.6203670884480093e+01 4.7589479836437354e+00 0 0 0
196 2 1.1851741540469585e+00 3.0288650039246967e+01 6.5730229906298732e+00 0 0 0
197 2 1.1776699230015928e+00 3.2340653101512210e+01 4.5996444500559290e+00 0 0 0
199 2 2.6515168847882715e+00 3.2326058410199515e+01 6.6469466479228370e+00 0 0 0
201 2 2.6407930267133435e+00 3.0294257998548733e+01 4.5823719963706386e+00 0 0 0
198 2 4.1171331135785758e+00 3.0288247983882279e+01 6.6430561609350818e+00 0 0 0
200 2 5.5850737625188929e+00 3.2322078875514713e+01 6.6821532302543734e+00 0 0 0
202 2 5.5847835497710525e+00 3.0287908377273741e+01 4.6384924716431275e+00 0 0 0
203 2 4.1153659416964219e+00 3.2324014473131619e+01 4.6310600736368723e+00 0 0 0
204 2 7.0542018769749992e+00 3.0286018346316343e+01 6.6934698948959150e+00 0 0 0
205 2 8.5207223386487829e+00 3.2319741042850147e+01 6.7251813466971306e+00 0 0 0
206 2 8.5222825738011565e+00 3.0284631998911820e+01 4.6863820083077021e+00 0 0 0
207 2 7.0527816082599344e+00 3.2320914324970758e+01 4.6722400898965759e+00 0 0 0
766 2 9.9900612913150137e+00 3.0282789880059696e+01 6.7407013188341880e+00 0 0 0
827 2 9.9878462237227250e+00 3.2318557255783780e+01 4.7173299549702881e+00 0 0 0
767 2 1.2923518693942995e+01 3.0278449094154848e+01 6.7885764783347700e+00 0 0 0
768 2 1.1454359888706353e+01 3.2317216536045244e+01 6.7717599442418388e+00 0 0 0
769 2 1.1457132026709353e+01 3.0280783397994075e+01 4.7336863529970712e+00 0 0 0
770 2 1.2920034755870583e+01 3.2315736829398674e+01 4.7653675161940532e+00 0 0 0
772 2 1.4384777962397719e+01 3.2314078545859104e+01 6.8212771324095716e+00 0 0 0
774 2 1.4389078449634416e+01 3.0275842534441821e+01 4.7824489169521005e+00 0 0 0
209 2 1.1886443248111824e+00 3.4370232514272182e+01 6.6373677915673381e+00 0 0 0
210 2 1.1966083341470639e+00 3.6418090475940986e+01 4.5958389538586877e+00 0 0 0
212 2 2.6550821879207729e+00 3.6399073087384295e+01 6.6479856987423913e+00 0 0 0