LAMMPS data file via write_data, version 11 Aug 2017, timestep = 1000

2557 atoms
2 atom types

0.0000000000000000e+00 8.4417446481339994e+01 xlo xhi
0.0000000000000000e+00 4.8738435450303001e+01 ylo yhi
0.0000000000000000e+00 7.4615186071760000e+00 zlo zhi

Masses

1 12.0107
2 55.845

Atoms # atomic

1 2 5.9631816122796566e-01 3.8188882837823042e+00 2.2764567851605166e+00 0 0 0
2 2 1.7823526157041152e+00 1.7901292010164378e+00 6.1772860946927211e-01 0 0 0
4 2 2.9753503186438182e+00 3.8179067920383858e+00 1.4394859516526888e+00 0 0 0
6 2 1.7823672973546016e+00 1.7901436902362633e+00 3.1048927897615943e+00 0 0 0
3 2 4.1596849660709321e+00 1.7897925381495234e+00 2.2698278131788596e+00 0 0 0
5 2 5.3550911895743649e+00 3.8176463578669360e+00 6.0213967578401173e-01 0 0 0
8 2 5.3551796999595709e+00 3.8175978343577639e+00 3.0893155901135709e+00 0 0 0
10 2 6.5378586595985810e+00 1.7903297926459791e+00 1.4344401703281286e+00 0 0 0
9 2 8.9173224817677319e+00 1.7919560276987276e+00 5.9833953750095414e-01 0 0 0
11 2 7.7360643279461643e+00 3.8180719097012839e+00 2.2513237766171796e+00 0 0 0
12 2 8.9177824530475753e+00 1.7913635472433227e+00 3.0856170617109462e+00 0 0 0
307 2 1.1299514154430472e+01 1.7947983593214503e+00 2.2472933036917770e+00 0 0 0
309 2 1.0117995209934303e+01 3.8202477712610525e+00 1.4117819798564519e+00 0 0 0
308 2 1.3686405593358327e+01 1.7957835098986741e+00 1.4028882709569417e+00 0 0 0
310 2 1.2501851836752543e+01 3.8230811811660099e+00 5.6967169149600971e-01 0 0 0
313 2 1.2499658194449216e+01 3.8268017763776667e+00 3.0554130375685351e+00 0 0 0
314 2 1.6068779767847467e+01 1.8263133002086422e+00 5.4448217942300858e-01 0 0 0
316 2 1.4884596223787613e+01 3.8362760129757265e+00 2.2064316600274356e+00 0 0 0
318 2 1.6058758688478754e+01 1.8139704411413475e+00 3.0283752649451943e+00 0 0 0
14 2 5.9901226379297856e-01 7.8730257780255331e+00 2.2733692834210983e+00 0 0 0
15 2 1.7881713456122064e+00 5.8455944784195815e+00 6.1185694771358412e-01 0 0 0
17 2 2.9803294472082769e+00 7.8716391606879785e+00 1.4338367684841560e+00 0 0 0
19 2 1.7881771883913589e+00 5.8455916811615740e+00 3.0990307724749888e+00 0 0 0
16 2 4.1689441032189363e+00 5.8446745912140941e+00 2.2603436927839291e+00 0 0 0
18 2 5.3622743709892173e+00 7.8707546614730504e+00 5.9377667446192040e-01 0 0 0
21 2 5.3622850183601320e+00 7.8707370818275129e+00 3.0809481586568768e+00 0 0 0
23 2 6.5505362617449991e+00 5.8444374165988657e+00 1.4210431970792634e+00 0 0 0
22 2 8.9330389521299089e+00 5.8454782474337552e+00 5.8053821184833998e-01 0 0 0
24 2 7.7451192974347860e+00 7.8706291896256779e+00 2.2399868553933446e+00 0 0 0
26 2 8.9332186104564748e+00 5.8451104567801675e+00 3.0678487675131176e+00 0 0 0
337 2 1.1316212156818946e+01 5.8493904692782994e+00 2.2248239141619535e+00 0 0 0
463 2 1.0128838650206458e+01 7.8725036625708054e+00 1.3973137704128218e+00 0 0 0
338 2 1.3701839563625313e+01 5.8557994156999520e+00 1.3791292157401760e+00 0 0 0
339 2 1.2514745623451354e+01 7.8759739177383965e+00 5.5292707018105858e-01 0 0 0
341 2 1.2513740194372520e+01 7.8777987486918333e+00 3.0396168073596925e+00 0 0 0
342 2 1.6092528945653612e+01 5.8642707324835603e+00 5.3518469454189854e-01 0 0 0
344 2 1.4904564278541196e+01 7.8808559986742939e+00 2.1955976055398394e+00 0 0 0
346 2 1.6091655489156750e+01 5.8645148763566457e+00 3.0216188329691227e+00 0 0 0
29 2 5.9922459177269249e-01 1.1925824207863398e+01 2.2722831895640860e+00 0 0 0
30 2 1.7901642632194334e+00 9.8986472495951343e+00 6.0901371273801641e-01 0 0 0
32 2 2.9807340525856083e+00 1.1924088835401937e+01 1.4321539628816433e+00 0 0 0
34 2 1.7901638694424737e+00 9.8986487658321760e+00 3.0961854154850821e+00 0 0 0
31 2 4.1720830607066564e+00 9.8972379877779364e+00 2.2558610710537583e+00 0 0 0
33 2 5.3628128221606142e+00 1.1922530767315649e+01 5.9146617434347759e-01 0 0 0
36 2 5.3628140790335630e+00 1.1922524142896709e+01 3.0786396792656174e+00 0 0 0
38 2 6.5547418527097783e+00 9.8963206430138531e+00 1.4148050295463015e+00 0 0 0
37 2 8.9384246093861979e+00 9.8964499328357860e+00 5.7255820988461692e-01 0 0 0
39 2 7.7458360269056463e+00 1.1921373112792175e+01 2.2371112447107095e+00 0 0 0
41 2 8.9384480279223215e+00 9.8963318103455897e+00 3.0597985904293457e+00 0 0 0
365 2 1.1323696811107453e+01 9.8981690119969983e+00 2.2160891504979068e+00 0 0 0
466 2 1.0130376275245915e+01 1.1920899678961435e+01 1.3945532931419165e+00 0 0 0
366 2 1.3712881859733022e+01 9.8992845264962916e+00 1.3723271287354513e+00 0 0 0
367 2 1.2517787596337744e+01 1.1920079670915056e+01 5.5158002831975905e-01 0 0 0
369 2 1.2517746179917028e+01 1.1920258934069349e+01 3.0387456796074352e+00 0 0 0
370 2 1.6106459075845947e+01 9.9003319325843329e+00 5.2904940960460811e-01 0 0 0
372 2 1.4908861798235604e+01 1.1918869425683226e+01 2.1957335846903745e+00 0 0 0
374 2 1.6106447630087967e+01 9.9004164828705647e+00 3.0161395293964328e+00 0 0 0
7 2 2.9753798136899627e+00 3.8179012776806323e+00 3.9266556795638206e+00 0 0 0
44 2 5.9632843890848342e-01 3.8188861984231344e+00 4.7636282269185459e+00 0 0 0
45 2 5.9632410252163959e-01 3.8188852390950401e+00 7.2508004874717864e+00 0 0 0
47 2 1.7823672212736485e+00 1.7901316288445861e+00 5.5920691302293433e+00 0 0 0
49 2 2.9753698510592312e+00 3.8179018667590512e+00 6.4138248320926508e+00 0 0 0
13 2 6.5379604112477168e+00 1.7901704435912811e+00 3.9216277148185821e+00 0 0 0
46 2 4.1596993273831666e+00 1.7897610616870121e+00 4.7570055052765809e+00 0 0 0
48 2 4.1596452814185874e+00 1.7897575509940498e+00 7.2441958974263452e+00 0 0 0
50 2 5.3551578763689012e+00 3.8176181815779793e+00 5.5764671891637487e+00 0 0 0
53 2 6.5377718795541666e+00 1.7901971209042347e+00 6.4088453084521655e+00 0 0 0
51 2 7.7360729771123768e+00 3.8179890558953398e+00 4.7384531507342960e+00 0 0 0
52 2 8.9172692068049599e+00 1.7911202109497573e+00 5.5729833603340602e+00 0 0 0
54 2 7.7358202609256121e+00 3.8182616619337519e+00 7.2256018632217707e+00 0 0 0
312 2 1.0118348330350901e+01 3.8191437200934386e+00 3.8993121976327907e+00 0 0 0
393 2 1.1298781056872533e+01 1.7916182633769742e+00 4.7364299673249244e+00 0 0 0
394 2 1.1298847363129106e+01 1.7937881999415457e+00 7.2224248892990177e+00 0 0 0
396 2 1.0117822338786661e+01 3.8196134080134301e+00 6.3863296124638884e+00 0 0 0
311 2 1.3676147314117108e+01 1.8045016330552106e+00 3.8907673639039397e+00 0 0 0
395 2 1.3683353685928777e+01 1.7920022009118748e+00 6.3841838420114572e+00 0 0 0
397 2 1.2500464822684334e+01 3.8224751808388726e+00 5.5448860598922662e+00 0 0 0
399 2 1.4874334230474561e+01 3.8512660686763174e+00 4.6901189937090821e+00 0 0 0
400 2 1.6035905030554325e+01 1.8626821586375848e+00 5.5113730172782107e+00 0 0 0
402 2 1.4882661824188750e+01 3.8394934827321929e+00 7.1819601924690479e+00 0 0 0
20 2 2.9803290902832118e+00 7.8716434022414985e+00 3.9210065367474973e+00 0 0 0
55 2 5.9901218899950226e-01 7.8730263570237495e+00 4.7605415894571985e+00 0 0 0
56 2 5.9901065630881267e-01 7.8730268658083231e+00 7.2477147423278838e+00 0 0 0
58 2 1.7881780597976604e+00 5.8455933183496018e+00 5.5862014026750710e+00 0 0 0
60 2 2.9803234732320596e+00 7.8716480618378188e+00 6.4081798160244050e+00 0 0 0
27 2 6.5505686365830291e+00 5.8444048463274907e+00 3.9082031499047285e+00 0 0 0
57 2 4.1689464806296490e+00 5.8446863032784133e+00 4.7475069072617995e+00 0 0 0
59 2 4.1689250072799187e+00 5.8446965714721069e+00 7.2346822950673726e+00 0 0 0
61 2 5.3622597226419062e+00 7.8707804026082817e+00 5.5681084479655203e+00 0 0 0
64 2 6.5504854513505641e+00 5.8445119495054341e+00 6.3953495837061940e+00 0 0 0
62 2 7.7451049358247124e+00 7.8706379954018475e+00 4.7271428602625791e+00 0 0 0
63 2 8.9331000286577300e+00 5.8452026243595867e+00 5.5549548194600105e+00 0 0 0
65 2 7.7450673220590334e+00 7.8707557831600488e+00 7.2142791060565585e+00 0 0 0
417 2 1.1316488139180404e+01 5.8480192129427655e+00 4.7126501272522967e+00 0 0 0
418 2 1.1316883454339568e+01 5.8478271224808811e+00 7.1997134772797633e+00 0 0 0
465 2 1.0128941342849464e+01 7.8721008450653800e+00 3.8846954580989732e+00 0 0 0
468 2 1.0129108232909322e+01 7.8719213900779836e+00 6.3718635537575752e+00 0 0 0
340 2 1.3698528916228897e+01 5.8609619507738060e+00 3.8649275527720723e+00 0 0 0
419 2 1.3700434384087727e+01 5.8570383794924243e+00 6.3536431413606902e+00 0 0 0
420 2 1.2514262917351065e+01 7.8765840930207380e+00 5.5272871665905781e+00 0 0 0
422 2 1.4904236043048872e+01 7.8820264477938897e+00 4.6827835506544533e+00 0 0 0
423 2 1.6090929689040742e+01 5.8676611255898958e+00 5.5088492420186768e+00 0 0 0
425 2 1.4904677545685116e+01 7.8806286463122559e+00 7.1702453057336371e+00 0 0 0
35 2 2.9807305815070051e+00 1.1924094861811742e+01 3.9193247990994999e+00 0 0 0
67 2 5.9922379545267301e-01 1.1925824913085814e+01 4.7594560970584636e+00 0 0 0
68 2 5.9922469146036350e-01 1.1925823625654482e+01 7.2466293810444045e+00 0 0 0
70 2 1.7901618334672738e+00 9.8986505819258035e+00 5.5833584342479252e+00 0 0 0
72 2 2.9807321704689564e+00 1.1924092597689713e+01 6.4064992860813366e+00 0 0 0
28 2 6.5547270031791207e+00 9.8963619981023090e+00 6.3891320540861729e+00 0 0 0
42 2 6.5547415083291041e+00 9.8963129413941680e+00 3.9019757822603709e+00 0 0 0
66 2 5.3628082889892692e+00 1.1922543237895557e+01 5.5658057277391197e+00 0 0 0
69 2 4.1720737504928254e+00 9.8972543497690513e+00 4.7430288228214170e+00 0 0 0
71 2 4.1720789917570009e+00 9.8972465236653910e+00 7.2302064616457526e+00 0 0 0
25 2 7.7458329628236733e+00 1.1921406182037371e+01 7.2114356613846438e+00 0 0 0
40 2 8.9385238399522784e+00 9.8962388712589604e+00 5.5469809584341769e+00 0 0 0
43 2 7.7458662633684261e+00 1.1921330627051161e+01 4.7242912254323608e+00 0 0 0
440 2 1.1323857768251036e+01 9.8978122216860882e+00 4.7034236064808992e+00 0 0 0
441 2 1.1324031665860256e+01 9.8975497168496442e+00 7.1906033191035785e+00 0 0 0
464 2 1.0130487934374614e+01 1.1920691363202684e+01 6.3689576386902500e+00 0 0 0
467 2 1.0130421663477621e+01 1.1920794927419829e+01 3.8817786856393721e+00 0 0 0
368 2 1.3712785376070787e+01 9.8997570438015217e+00 3.8594959426875941e+00 0 0 0
442 2 1.3712945951015994e+01 9.8992354967374858e+00 6.3467925095523796e+00 0 0 0
443 2 1.2517814963831579e+01 1.1920077121624571e+01 5.5259697864028485e+00 0 0 0
445 2 1.4908859046993673e+01 1.1919028687116313e+01 4.6829180879353700e+00 0 0 0
446 2 1.6106407552208811e+01 9.9008025084858264e+00 5.5033419109074826e+00 0 0 0
448 2 1.4908873170437474e+01 1.1918850442742251e+01 7.1701142342052355e+00 0 0 0
73 2 1.7889863408811739e+00 1.3951421706183332e+01 6.0905256504462468e-01 0 0 0
74 2 5.9755355571708912e-01 1.5979335519657729e+01 2.2729864358074785e+00 0 0 0
75 2 1.7889851218883610e+00 1.3951423908252163e+01 3.0962246408537770e+00 0 0 0
77 2 2.9773627424913434e+00 1.5977212037132295e+01 1.4342669656995790e+00 0 0 0
76 2 4.1701029864926991e+00 1.3949455130324607e+01 2.2563306918523880e+00 0 0 0
78 2 5.3576971769375987e+00 1.5974777820650878e+01 5.9512317083121113e-01 0 0 0
80 2 5.3577013631470107e+00 1.5974770638505996e+01 3.0822977018313136e+00 0 0 0
82 2 6.5519693405590003e+00 1.3947488800702367e+01 1.4158210996216174e+00 0 0 0
81 2 8.9351065880867431e+00 1.3945569399617968e+01 5.7457030993385105e-01 0 0 0
83 2 7.7389867582019738e+00 1.5971992439949547e+01 2.2426271940817259e+00 0 0 0
85 2 8.9351185689837056e+00 1.3945539023597691e+01 3.0617602218025075e+00 0 0 0
469 2 1.1320373681116475e+01 1.3943277865375988e+01 2.2199901709774315e+00 0 0 0
625 2 1.0121821452255604e+01 1.5968619878330513e+01 1.4024915882094278e+00 0 0 0
470 2 1.3708584860409953e+01 1.3940179507030875e+01 1.3779811389508676e+00 0 0 0
471 2 1.2506851189380939e+01 1.5964298403766895e+01 5.6203107021492094e-01 0 0 0
473 2 1.2506849881234023e+01 1.5964320934300261e+01 3.0492045071496294e+00 0 0 0
474 2 1.6100489698095572e+01 1.3936213299559375e+01 5.3587384875577171e-01 0 0 0
476 2 1.4894710109103194e+01 1.5958861507144515e+01 2.2084963906891018e+00 0 0 0
478 2 1.6100489222575273e+01 1.3936222963897123e+01 3.0230344741047399e+00 0 0 0
88 2 1.7852941262336977e+00 1.8005853574344890e+01 6.1171935138267730e-01 0 0 0
89 2 5.9451075435992495e-01 2.0035415707806472e+01 2.2752267096196053e+00 0 0 0
90 2 1.7852938658779951e+00 1.8005854504414522e+01 3.0988918546980382e+00 0 0 0
92 2 2.9709923058232688e+00 2.0032897046495794e+01 1.4396500122755940e+00 0 0 0
91 2 4.1638085730499590e+00 1.8003253508575085e+01 2.2614156216755066e+00 0 0 0
93 2 5.3478352361723394e+00 2.0029635499016599e+01 6.0387199753328036e-01 0 0 0
95 2 5.3478363273400706e+00 2.0029633514473197e+01 3.0910451679187698e+00 0 0 0
97 2 6.5429554745109391e+00 1.8000064803581964e+01 1.4235871455989677e+00 0 0 0
96 2 8.9231488352050921e+00 1.7996093946976501e+01 5.8541003928140412e-01 0 0 0
98 2 7.7252983521036800e+00 2.0025481597821795e+01 2.2550591438127472e+00 0 0 0
100 2 8.9231521254669186e+00 1.7996086655669039e+01 3.0725857385216799e+00 0 0 0
497 2 1.1304847182707725e+01 1.7991071549503999e+01 2.2341110090651584e+00 0 0 0
627 2 1.0103660961734491e+01 2.0020218970771126e+01 1.4188817127469706e+00 0 0 0
498 2 1.3688526964839102e+01 1.7984751909028784e+01 1.3953749809703444e+00 0 0 0
499 2 1.2483220861373807e+01 2.0013599784563567e+01 5.8252149161755629e-01 0 0 0
501 2 1.2483220689090285e+01 2.0013603220155893e+01 3.0696944064709539e+00 0 0 0
502 2 1.6074723278893405e+01 1.7976989694686875e+01 5.5636662210536458e-01 0 0 0
504 2 1.4864300202273075e+01 2.0005430069539663e+01 2.2331244746911505e+00 0 0 0
506 2 1.6074723033618199e+01 1.7976990402326273e+01 3.0435377535728949e+00 0 0 0
103 2 1.7798114230373976e+00 2.2063658283892146e+01 6.1642938480677489e-01 0 0 0
104 2 1.7798115441162243e+00 2.2063658979594830e+01 3.1036022066505713e+00 0 0 0
105 2 5.9064717206926942e-01 2.4095489059663254e+01 2.2785424090083266e+00 0 0 0
107 2 2.9627980891679528e+00 2.4092710945911243e+01 1.4470966808539514e+00 0 0 0
106 2 4.1542907889991278e+00 2.2060565072999349e+01 2.2699876789911557e+00 0 0 0
108 2 5.3350111887367806e+00 2.4089030189878784e+01 6.1567664522601218e-01 0 0 0
109 2 5.3350117939137940e+00 2.4089030782274182e+01 3.1028499162381573e+00 0 0 0
111 2 6.5290553976571752e+00 2.2056546929002472e+01 1.4362993314184300e+00 0 0 0
110 2 8.9042296871830118e+00 2.2051429097509562e+01 6.0256093002221367e-01 0 0 0
112 2 1.0079556827190572e+01 2.4078431772304356e+01 1.4402978442482282e+00 0 0 0
113 2 8.9042298699713118e+00 2.2051427863733682e+01 3.0897340275186056e+00 0 0 0
115 2 7.7072783978781931e+00 2.4084327803161965e+01 2.2715144692041269e+00 0 0 0
525 2 1.1279928643026985e+01 2.2044992962430349e+01 2.2559542923121301e+00 0 0 0
526 2 1.3656260560162654e+01 2.2037023926978158e+01 1.4221099722585808e+00 0 0 0
527 2 1.2451764179171473e+01 2.4071142859558385e+01 6.0919505076475977e-01 0 0 0
529 2 1.2451764234059615e+01 2.4071143811031551e+01 3.0963677665127669e+00 0 0 0
530 2 1.6033343804477759e+01 2.2027356200352425e+01 5.8814486924666898e-01 0 0 0
533 2 1.6033343776021287e+01 2.2027356639493863e+01 3.0753175237112864e+00 0 0 0
534 2 1.4823778999408312e+01 2.4062284412869790e+01 2.2653355505756010e+00 0 0 0
79 2 2.9773619422379909e+00 1.5977214605216339e+01 3.9214388334338866e+00 0 0 0
116 2 5.9755363955965368e-01 1.5979335389217697e+01 4.7601594616272545e+00 0 0 0
117 2 1.7889855326396733e+00 1.3951423317269180e+01 5.5833980384010626e+00 0 0 0
118 2 5.9755396974050967e-01 1.5979334720951858e+01 7.2473324739121354e+00 0 0 0
121 2 2.9773622145783394e+00 1.5977213710802376e+01 6.4086122979376432e+00 0 0 0
86 2 6.5519807014419884e+00 1.3947470826088582e+01 3.9029976653235345e+00 0 0 0
119 2 4.1701007473797862e+00 1.3949462236327667e+01 4.7435009041333958e+00 0 0 0
120 2 4.1701019836434385e+00 1.3949458728137008e+01 7.2306757372507224e+00 0 0 0
122 2 5.3576978223398637e+00 1.5974779643870255e+01 5.5694669660662344e+00 0 0 0
125 2 6.5519697481074521e+00 1.3947497197365418e+01 6.3901603019160262e+00 0 0 0
123 2 7.7389953686453543e+00 1.5971977411544660e+01 4.7298016202419326e+00 0 0 0
124 2 8.9351428045213197e+00 1.3945499203630146e+01 5.5489364131096304e+00 0 0 0
126 2 7.7389836803038117e+00 1.5972000973392634e+01 7.2169674285123504e+00 0 0 0
552 2 1.1320399945797437e+01 1.3943214872816361e+01 4.7071832015116009e+00 0 0 0
553 2 1.1320391832452723e+01 1.3943211055803907e+01 7.1943407471154304e+00 0 0 0
626 2 1.0121830843987439e+01 1.5968598284011252e+01 3.8896721224057349e+00 0 0 0
629 2 1.0121828697898817e+01 1.5968595006751778e+01 6.3768398621089952e+00 0 0 0
472 2 1.3708583257560386e+01 1.3940240250958340e+01 3.8651570171008842e+00 0 0 0
554 2 1.3708591862544409e+01 1.3940178108683581e+01 6.3523404019035894e+00 0 0 0
555 2 1.2506853662793024e+01 1.5964299314523718e+01 5.5363817481881261e+00 0 0 0
557 2 1.4894710370583773e+01 1.5958884888857387e+01 4.6956712410392063e+00 0 0 0
558 2 1.6100490917957313e+01 1.3936281618192357e+01 5.5102143372948609e+00 0 0 0
560 2 1.4894711306602215e+01 1.5958860547047854e+01 7.1828469970678519e+00 0 0 0
94 2 2.9709919817707111e+00 2.0032898121444170e+01 3.9268224426967948e+00 0 0 0
128 2 5.9451070315871080e-01 2.0035415620867607e+01 4.7623995795235068e+00 0 0 0
129 2 1.7852938761595205e+00 1.8005854276234992e+01 5.5860648775038122e+00 0 0 0
130 2 5.9451076398813185e-01 2.0035415273310068e+01 7.2495725404969997e+00 0 0 0
133 2 2.9709917107767749e+00 2.0032898012190561e+01 6.4139954228293972e+00 0 0 0
101 2 6.5429585090386446e+00 1.8000059237210348e+01 3.9107606917744788e+00 0 0 0
131 2 4.1638074525495359e+00 1.8003256535919164e+01 4.7485872332179913e+00 0 0 0
132 2 4.1638070552560000e+00 1.8003256256270781e+01 7.2357606594619091e+00 0 0 0
134 2 5.3478350799136791e+00 2.0029636164251137e+01 5.5782171689256010e+00 0 0 0
137 2 6.5429547387585503e+00 1.8000067132281426e+01 6.3979311183583150e+00 0 0 0
135 2 7.7252982703216793e+00 2.0025480692015321e+01 4.7422315160276982e+00 0 0 0
136 2 8.9231516320696578e+00 1.7996084763243388e+01 5.5597569630059560e+00 0 0 0
138 2 7.7252972231741959e+00 2.0025484101049113e+01 7.2294038680737120e+00 0 0 0
575 2 1.1304848610265715e+01 1.7991063990930396e+01 4.7212856154822074e+00 0 0 0
576 2 1.1304847777348490e+01 1.7991063163610846e+01 7.2084567307484200e+00 0 0 0
628 2 1.0103661473765973e+01 2.0020216233007936e+01 3.9060552416858947e+00 0 0 0
630 2 1.0103661192202292e+01 2.0020215805535184e+01 6.3932275234634455e+00 0 0 0
500 2 1.3688526688526272e+01 1.7984760845429893e+01 3.8825482946324845e+00 0 0 0
577 2 1.3688527313596650e+01 1.7984752229514289e+01 6.3697224906285035e+00 0 0 0
578 2 1.2483220920541116e+01 2.0013600045469495e+01 5.5568678292240605e+00 0 0 0
580 2 1.4864300146708555e+01 2.0005433591225223e+01 4.7202975678959112e+00 0 0 0
581 2 1.6074723340129932e+01 1.7976999391692562e+01 5.5307115831013203e+00 0 0 0
583 2 1.4864300276864629e+01 2.0005429966780873e+01 7.2074708585113409e+00 0 0 0
140 2 5.9064705289454822e-01 2.4095488630697350e+01 7.2528880333114074e+00 0 0 0
141 2 1.7798113127452859e+00 2.2063658791259417e+01 5.5907749865255942e+00 0 0 0
142 2 5.9064725738193780e-01 2.4095489136010535e+01 4.7657152155286342e+00 0 0 0
144 2 2.9627985884839818e+00 2.4092712304236066e+01 3.9342697083250875e+00 0 0 0
146 2 2.9627981166066255e+00 2.4092711487522187e+01 6.4214422564360953e+00 0 0 0
99 2 6.5290549816847276e+00 2.2056547951552691e+01 6.4106446958605519e+00 0 0 0
114 2 6.5290554673587584e+00 2.2056546678071790e+01 3.9234721101640480e+00 0 0 0
143 2 4.1542904063076849e+00 2.2060566139133424e+01 4.7571602074604620e+00 0 0 0
145 2 4.1542902190004840e+00 2.2060565574736103e+01 7.2443331510290241e+00 0 0 0
147 2 5.3350115938457172e+00 2.4089031661739263e+01 5.5900225168341064e+00 0 0 0
84 2 1.0079556707647487e+01 2.4078430741994918e+01 6.4146436678171836e+00 0 0 0
87 2 7.7072784748748919e+00 2.4084328203155213e+01 4.7586874225447620e+00 0 0 0
102 2 8.9042297346973829e+00 2.2051427749428150e+01 5.5769067322426231e+00 0 0 0
127 2 1.0079556803030524e+01 2.4078430377839908e+01 3.9274707392346291e+00 0 0 0
139 2 7.7072781964850101e+00 2.4084328807264992e+01 7.2458600649957710e+00 0 0 0
598 2 1.1279928660986258e+01 2.2044991447233368e+01 4.7431273551901958e+00 0 0 0
599 2 1.1279928680996623e+01 2.2044991499004954e+01 7.2303000881808686e+00 0 0 0
528 2 1.3656260493322840e+01 2.2037025375557356e+01 3.9092828176434398e+00 0 0 0
600 2 1.3656260531456224e+01 2.2037023666807055e+01 6.3964558839077608e+00 0 0 0
601 2 1.2451764083868989e+01 2.4071142078756552e+01 5.5835406729211945e+00 0 0 0
602 2 1.4823778921601543e+01 2.4062283400136607e+01 7.2396812246519353e+00 0 0 0
605 2 1.6033343778566174e+01 2.2027358019585964e+01 5.5624904339984989e+00 0 0 0
607 2 1.4823778948387247e+01 2.4062285123216054e+01 4.7525082330263295e+00 0 0 0
148 2 1.7736056109239535e+00 2.6125933029475348e+01 6.2211690602659853e-01 0 0 0
149 2 1.7736060298381646e+00 2.6125934102200009e+01 3.1092901995645548e+00 0 0 0
150 2 5.8669584664104457e-01 2.8160094120380148e+01 2.2822283460767294e+00 0 0 0
151 2 2.9546048057775867e+00 2.8157295759831349e+01 1.4547784496373173e+00 0 0 0
152 2 5.3222594528643574e+00 2.8153729027773778e+01 6.2751872133386355e-01 0 0 0
153 2 4.1435064544059941e+00 2.6122686878459380e+01 2.2799819705287003e+00 0 0 0
154 2 5.3222590733995911e+00 2.8153728358858139e+01 3.1146930606754655e+00 0 0 0
155 2 6.5132469868014979e+00 2.6118539661041439e+01 1.4508474797727926e+00 0 0 0
156 2 8.8826729375580271e+00 2.6113388811020492e+01 6.2196916467846031e-01 0 0 0
157 2 1.0055858400635067e+01 2.8144137177577715e+01 1.4612516053459614e+00 0 0 0
158 2 8.8826733636217092e+00 2.6113386698838855e+01 3.1091422413008383e+00 0 0 0
159 2 7.6894423714324036e+00 2.8149361297858718e+01 2.2877650391451771e+00 0 0 0
633 2 1.1251559149796591e+01 2.6107079158542305e+01 2.2805439660032172e+00 0 0 0
631 2 1.3619607166059403e+01 2.6099452344828030e+01 1.4521895031121186e+00 0 0 0
632 2 1.2421099829750483e+01 2.8137926606673812e+01 6.3512821154623911e-01 0 0 0
634 2 1.2421100818494274e+01 2.8137930024509494e+01 3.1223002709201140e+00 0 0 0
635 2 1.5986441673479010e+01 2.6090391229856834e+01 6.2399368004920053e-01 0 0 0
638 2 1.5986441810645271e+01 2.6090394043006924e+01 3.1111668619708359e+00 0 0 0
639 2 1.4784669241454438e+01 2.8130635149303640e+01 2.2964502181467155e+00 0 0 0
160 2 1.7680925903753038e+00 3.0192649442749996e+01 6.2742563048099653e-01 0 0 0
161 2 1.7680911623434510e+00 3.0192649407343254e+01 3.1145988618577500e+00 0 0 0
162 2 5.8350155255436420e-01 3.2228537750004818e+01 2.2855031609753462e+00 0 0 0
163 2 2.9484730404199126e+00 3.2225965120655282e+01 1.4608031996989090e+00 0 0 0
164 2 5.3129618202909850e+00 3.2222935561943082e+01 6.3634268456435850e-01 0 0 0
165 2 4.1341422293156977e+00 3.0189618839093047e+01 2.2888267413792698e+00 0 0 0
166 2 5.3129454841280781e+00 3.2222918021243160e+01 3.1235134552604249e+00 0 0 0
167 2 6.4996783104481315e+00 3.0185962594569904e+01 1.4633682627067603e+00 0 0 0
171 2 7.6766345100550275e+00 3.2219441916589794e+01 2.2994597727536958e+00 0 0 0
168 2 8.8644101376543318e+00 3.0181741231304002e+01 6.3839681215697985e-01 0 0 0
169 2 1.0039233928787040e+01 3.2215779535838827e+01 1.4760374290004650e+00 0 0 0
170 2 8.8644022766271817e+00 3.0181715831074783e+01 3.1255666719918418e+00 0 0 0
657 2 1.1227893933096905e+01 3.0176902528025312e+01 2.3011162739162603e+00 0 0 0
655 2 1.3589581313897760e+01 3.0171397758704050e+01 1.4770623780284147e+00 0 0 0
656 2 1.2400165214140305e+01 3.2211853187047851e+01 6.5318776508382204e-01 0 0 0
658 2 1.2400155623725817e+01 3.2211860588587754e+01 3.1403492939935664e+00 0 0 0
659 2 1.4758719498331034e+01 3.2207692019999314e+01 2.3177641879516928e+00 0 0 0
660 2 1.5948810686221151e+01 3.0165157462024812e+01 6.5312942573592481e-01 0 0 0
663 2 1.5948811387924737e+01 3.0165176912362853e+01 3.1403049330068624e+00 0 0 0
172 2 1.7646048042852078e+00 3.4262505988652777e+01 6.3115876879477506e-01 0 0 0
173 2 1.7646063285248546e+00 3.4262508000237766e+01 3.1183309993637192e+00 0 0 0
174 2 5.8179044539486846e-01 3.6299015681354476e+01 2.2876989818135258e+00 0 0 0
175 2 2.9459228908673385e+00 3.6296863170433930e+01 1.4638721732177029e+00 0 0 0
176 2 5.3094462507810185e+00 3.6294629860905673e+01 6.4027847086549539e-01 0 0 0
177 2 4.1286318778670745e+00 3.4259986224325125e+01 2.2944143554460519e+00 0 0 0
178 2 5.3094514023145303e+00 3.6294619888877378e+01 3.1274402279774129e+00 0 0 0
179 2 6.4919426026879492e+00 3.4257189580796066e+01 1.4707989034619127e+00 0 0 0
183 2 7.6720603192960590e+00 3.6292262065715498e+01 2.3041469725969685e+00 0 0 0
180 2 8.8542769590875157e+00 3.4254320909886459e+01 6.4771030969329513e-01 0 0 0
181 2 1.0033634245291340e+01 3.6290290955422286e+01 1.4814767656400238e+00 0 0 0
182 2 8.8541423644333541e+00 3.4254083110034813e+01 3.1347978790993047e+00 0 0 0
681 2 1.1215169434226853e+01 3.4251463590221128e+01 2.3124447733617384e+00 0 0 0
679 2 1.3574178781980093e+01 3.4248990444371245e+01 1.4906690890254182e+00 0 0 0
680 2 1.2393708296125286e+01 3.6288661636511399e+01 6.5968800762526747e-01 0 0 0
682 2 1.2393517590045899e+01 3.6288606226235075e+01 3.1466756097390753e+00 0 0 0
683 2 1.4751502751708028e+01 3.6288146210071957e+01 2.3254910791947587e+00 0 0 0
684 2 1.5930290476318966e+01 3.4246681142600274e+01 6.6882854804206393e-01 0 0 0
687 2 1.5930276603052359e+01 3.4246805024436554e+01 3.1560162007441130e+00 0 0 0
184 2 5.8669634564289919e-01 2.8160094110398717e+01 7.2565739708722381e+00 0 0 0
185 2 1.7736063191138030e+00 2.6125934116941533e+01 5.5964628478887892e+00 0 0 0
186 2 5.8669621219386869e-01 2.8160094404461510e+01 4.7694013142778156e+00 0 0 0
188 2 2.9546062008639553e+00 2.8157298700049555e+01 3.9419525941798419e+00 0 0 0
190 2 2.9546069128561516e+00 2.8157298420405603e+01 6.4291247019616398e+00 0 0 0
187 2 4.1435067376826451e+00 2.6122687467442510e+01 7.2543272928037155e+00 0 0 0
189 2 4.1435081624645411e+00 2.6122690071939886e+01 4.7671554932929174e+00 0 0 0
191 2 5.3222640039162057e+00 2.8153737002931749e+01 5.6018677292310128e+00 0 0 0
193 2 6.5132486734386115e+00 2.6118542032050964e+01 3.9380215851855271e+00 0 0 0
195 2 6.5132483025214629e+00 2.6118543163359011e+01 6.4251938060997329e+00 0 0 0
192 2 7.6894456707897270e+00 2.8149370678310124e+01 7.2621121879460926e+00 0 0 0
194 2 1.0055859671822404e+01 2.8144131524745056e+01 3.9484250797045668e+00 0 0 0
196 2 8.8826735621636335e+00 2.6113388156861365e+01 5.5963154711163670e+00 0 0 0
197 2 7.6894472000229150e+00 2.8149368673540721e+01 4.7749414247706072e+00 0 0 0
198 2 1.0055859955761655e+01 2.8144135905986950e+01 6.4355988857106725e+00 0 0 0
703 2 1.1251558765550051e+01 2.6107077584381301e+01 7.2548899537048444e+00 0 0 0
705 2 1.1251559001175666e+01 2.6107076087980658e+01 4.7677167556126543e+00 0 0 0
704 2 1.3619607321985617e+01 2.6099453511984287e+01 3.9393619089526277e+00 0 0 0
706 2 1.3619606932859533e+01 2.6099449898107110e+01 6.4265347840061207e+00 0 0 0
707 2 1.2421100434601222e+01 2.8137921865441843e+01 5.6094730188598927e+00 0 0 0
709 2 1.4784668753488816e+01 2.8130628172097733e+01 7.2707948264037334e+00 0 0 0
712 2 1.5986441686209510e+01 2.6090394566004584e+01 5.5983391691958211e+00 0 0 0
713 2 1.4784669530976336e+01 2.8130637295933486e+01 4.7836217723842864e+00 0 0 0
199 2 5.8350090545791655e-01 3.2228536923841602e+01 7.2598490826290671e+00 0 0 0
200 2 1.7680922657120210e+00 3.0192650113640731e+01 5.6017719558556820e+00 0 0 0
201 2 5.8349970696452547e-01 3.2228536606498309e+01 4.7726759985130780e+00 0 0 0
203 2 2.9484689051305359e+00 3.2225964946187425e+01 3.9479771307645257e+00 0 0 0
205 2 2.9484721979927642e+00 3.2225966764361338e+01 6.4351505090306649e+00 0 0 0
202 2 4.1341481221072200e+00 3.0189625706485060e+01 7.2631735865598062e+00 0 0 0
204 2 4.1341465366200305e+00 3.0189627261780199e+01 4.7760031805491012e+00 0 0 0
206 2 5.3129584941215544e+00 3.2222942116047761e+01 5.6106961120204799e+00 0 0 0
207 2 7.6766781500572012e+00 3.2219518770872220e+01 7.2738342668214573e+00 0 0 0
208 2 6.4996786714405443e+00 3.0185963268171164e+01 3.9505461357282217e+00 0 0 0
210 2 6.4996924363174040e+00 3.0185987375298094e+01 6.4377236960902309e+00 0 0 0
212 2 7.6766400312110274e+00 3.2219451733738985e+01 4.7866494286513621e+00 0 0 0
209 2 1.0039216080371370e+01 3.2215710949546335e+01 3.9632048301821303e+00 0 0 0
211 2 8.8644157835499957e+00 3.0181737986535158e+01 5.6127492772313667e+00 0 0 0
213 2 1.0039253214209339e+01 3.2215776364579689e+01 6.4504041370967418e+00 0 0 0
733 2 1.1227897819273345e+01 3.0176899482094278e+01 7.2754662335427316e+00 0 0 0
736 2 1.1227897700523874e+01 3.0176886617113428e+01 4.7882910749080407e+00 0 0 0
734 2 1.4758724686143951e+01 3.2207649277754932e+01 7.2921038861309038e+00 0 0 0
735 2 1.3589583736159950e+01 3.0171405642729667e+01 3.9642327469476202e+00 0 0 0
737 2 1.3589582999210913e+01 3.0171383334965217e+01 6.4514057581119513e+00 0 0 0
738 2 1.2400166670664126e+01 3.2211815316168249e+01 5.6275280804009862e+00 0 0 0
739 2 1.4758725781498285e+01 3.2207709889183569e+01 4.8049294283679380e+00 0 0 0
743 2 1.5948812078558905e+01 3.0165181132399479e+01 5.6274741544267348e+00 0 0 0
214 2 5.8178569048455009e-01 3.6299012398108800e+01 7.2620439097734186e+00 0 0 0
215 2 1.7646011004476407e+00 3.4262504765342683e+01 5.6055039191504203e+00 0 0 0
216 2 5.8179125125599174e-01 3.6299016234034262e+01 4.7748707076688381e+00 0 0 0
218 2 2.9459263169452341e+00 3.6296867841778820e+01 3.9510429892451588e+00 0 0 0
220 2 2.9459115935493987e+00 3.6296859017594137e+01 6.4382164419770405e+00 0 0 0
217 2 4.1286297528058382e+00 3.4259990254914541e+01 7.2687642985619751e+00 0 0 0
219 2 4.1286199013674585e+00 3.4259985486534390e+01 4.7815902938349186e+00 0 0 0
221 2 5.3094165831982094e+00 3.6294617032787940e+01 5.6146218167533615e+00 0 0 0
222 2 7.6720512471378246e+00 3.6292343702841727e+01 7.2785624245858509e+00 0 0 0
223 2 6.4918975427542218e+00 3.4257145603701666e+01 3.9579689090769099e+00 0 0 0
225 2 6.4919364136895377e+00 3.4257213660854298e+01 6.4451681400011971e+00 0 0 0
227 2 7.6719358377122830e+00 3.6292154559010719e+01 4.7913202553440861e+00 0 0 0