LAMMPS data file via write_data, version 11 Aug 2017, timestep = 1000

4645 atoms
2 atom types

0.0000000000000000e+00 8.4726322154464000e+01 xlo xhi
0.0000000000000000e+00 4.8738435450303001e+01 ylo yhi
0.0000000000000000e+00 1.3470591938134000e+01 zlo zhi

Masses

1 12.0107
2 55.845

Atoms # atomic

1 2 2.3437204114680825e+00 2.0045702563804206e+00 3.0768211542798931e+00 0 0 0
2 2 1.4698617931469926e+00 4.0356004331831334e+00 1.2182804045706912e+00 0 0 0
4 2 2.7816941737430860e+00 2.0043096976246795e+00 6.3952061443542729e-01 0 0 0
5 2 5.4094446219461814e+00 2.0022106889094613e+00 1.2957210229348092e+01 0 0 -1
6 2 4.9714994756212256e+00 2.0026320173579202e+00 1.9238245517829240e+00 0 0 0
7 2 4.0982221413717355e+00 4.0342339012392392e+00 6.6067049547617746e-02 0 0 0
8 2 3.6601758809292946e+00 4.0345139486116768e+00 2.5031469067495098e+00 0 0 0
9 2 6.2883207985016023e+00 4.0324614711563145e+00 1.3516867941208854e+00 0 0 0
11 2 7.5990462957353628e+00 1.9996049684999901e+00 7.7151474626233996e-01 0 0 0
58 2 7.1611440643602133e+00 2.0002002485418116e+00 3.2086032621952163e+00 0 0 0
12 2 1.0226177302997700e+01 1.9951777687474344e+00 1.3090857745670597e+01 0 0 -1
13 2 9.7883606242399548e+00 1.9960291210378558e+00 2.0571449477015618e+00 0 0 0
14 2 8.9159946851490375e+00 4.0293434627475291e+00 2.0157438470568675e-01 0 0 0
15 2 8.4780946452873529e+00 4.0299508514378912e+00 2.6382385944620870e+00 0 0 0
581 2 1.1105127855528149e+01 4.0257374269882362e+00 1.4897671141057203e+00 0 0 0
505 2 1.2414958719073672e+01 1.9902166128951515e+00 9.0718922615969277e-01 0 0 0
506 2 1.5040644311745478e+01 1.9825763278954029e+00 1.3230067007777846e+01 0 0 -1
507 2 1.4603115732577828e+01 1.9839882774584423e+00 2.1956666737887911e+00 0 0 0
508 2 1.3730987002069300e+01 4.0199896181126737e+00 3.4414251062312201e-01 0 0 0
510 2 1.3293455526476240e+01 4.0210680722586112e+00 2.7799314276052374e+00 0 0 0
513 2 1.5917941460066281e+01 4.0139411763210360e+00 1.6376890272512159e+00 0 0 0
603 2 1.1977247393915880e+01 1.9913173924986998e+00 3.3438147862570715e+00 0 0 0
17 2 2.3478690963022681e+00 6.0658206720625083e+00 3.0812060996613075e+00 0 0 0
18 2 1.4728075023811091e+00 8.0965104832462487e+00 1.2212833860396506e+00 0 0 0
20 2 2.7860058370528833e+00 6.0656649516474115e+00 6.4418469343848206e-01 0 0 0
21 2 5.4146545596532141e+00 6.0643809972799083e+00 1.2963878526820524e+01 0 0 -1
22 2 4.9765723564615154e+00 6.0646416198595983e+00 1.9301137022570292e+00 0 0 0
23 2 4.1019065047056849e+00 8.0959881341380271e+00 7.0389762421843013e-02 0 0 0
24 2 3.6637439320096172e+00 8.0961003320457561e+00 2.5072221579629841e+00 0 0 0
25 2 6.2925272761476609e+00 8.0952485716044453e+00 1.3574588430835193e+00 0 0 0
27 2 7.1668359554791330e+00 6.0631246537966925e+00 3.2170141393178420e+00 0 0 0
28 2 7.6048358038461226e+00 6.0627498503184087e+00 7.8042599684430503e-01 0 0 0
29 2 1.0232298471424738e+01 6.0599347819213323e+00 1.3103459557616034e+01 0 0 -1
30 2 9.7944658860290854e+00 6.0604785971493840e+00 2.0690389631174386e+00 0 0 0
31 2 8.9206135625835898e+00 8.0938846604044663e+00 2.0969394692421384e-01 0 0 0
32 2 8.4826682209989599e+00 8.0941542141493539e+00 2.6459106259567435e+00 0 0 0
580 2 1.1109792171992876e+01 8.0922601328620551e+00 1.5005503561392575e+00 0 0 0
537 2 1.1983255344900060e+01 6.0574454559003117e+00 3.3597098698796586e+00 0 0 0
538 2 1.2420874066867809e+01 6.0567331621312430e+00 9.2403713869577586e-01 0 0 0
539 2 1.5045384508000108e+01 6.0517142127173384e+00 1.3254005239081225e+01 0 0 -1
540 2 1.4608146725695770e+01 6.0526500204221989e+00 2.2182409257225881e+00 0 0 0
541 2 1.3735110477793283e+01 8.0896114491153046e+00 3.5931569279732217e-01 0 0 0
543 2 1.3297727715906937e+01 8.0901138051993815e+00 2.7942639353048522e+00 0 0 0
546 2 1.5920826836851726e+01 8.0867709617563293e+00 1.6578830068592600e+00 0 0 0
33 2 2.3499176507508883e+00 1.0126900298953315e+01 3.0834087404982475e+00 0 0 0
36 2 2.7881331160299156e+00 1.0126900566492420e+01 6.4652296635954642e-01 0 0 0
4198 2 1.0334286868023357e+00 6.0662030889199947e+00 1.0392412130726045e+01 1 0 0
37 2 5.4172159524877470e+00 1.0126828195301336e+01 1.2967185706854425e+01 0 0 -1
38 2 4.9790677573751152e+00 1.0126850248880221e+01 1.9332384713484687e+00 0 0 0
43 2 7.1696282332867005e+00 1.0126695309817213e+01 3.2211557067056216e+00 0 0 0
4122 2 1.0352332000354580e+00 1.0126881017863145e+01 1.0394242914161007e+01 1 0 0
4181 2 5.9179975299488885e-01 2.0054015071591733e+00 1.2826133224572006e+01 1 0 0
4116 2 1.0352828483663321e+00 1.2157177328195235e+01 3.6590281095310613e+00 1 0 0
44 2 7.6076738679682565e+00 1.0126648728139871e+01 7.8480533857489432e-01 0 0 0
45 2 1.0235283765353598e+01 1.0126252797871253e+01 1.3109575667702446e+01 0 0 -1
46 2 9.7974451005328085e+00 1.0126335279708831e+01 2.0748244274579837e+00 0 0 0
4100 2 1.0346023455462268e+00 8.0965664447866725e+00 3.6582964217425888e+00 1 0 0
4084 2 1.0317865511487001e+00 4.0357632706301310e+00 3.6554799457130343e+00 1 0 0
548 2 1.6357671468170015e+01 8.0861122896953166e+00 1.2694684911138122e+01 0 0 0
570 2 1.1986157066914682e+01 1.0125864409016776e+01 3.3673497783613877e+00 0 0 0
571 2 1.2423725422706575e+01 1.0125746296186904e+01 9.3211341890201005e-01 0 0 0
572 2 1.5047575851966398e+01 1.0124892043326746e+01 1.3265284536239189e+01 0 0 -1
573 2 1.4610487177738520e+01 1.0125063501226647e+01 2.2289070610144228e+00 0 0 0
515 2 1.6355135563030345e+01 4.0125853000015121e+00 1.2673296947278294e+01 0 0 0
684 2 1.6358245444318886e+01 1.0124375627335239e+01 5.9639761259965081e+00 0 0 0
648 2 1.6356726537489120e+01 6.0487119648082075e+00 5.9506420125072195e+00 0 0 0
50 2 1.9057438734067125e+00 2.0048084476187613e+00 5.5141336234606904e+00 0 0 0
54 2 3.2221230468261544e+00 4.0347716640855964e+00 4.9402507624102450e+00 0 0 0
55 2 2.7840647393733682e+00 4.0350077816864456e+00 7.3773768716321539e+00 0 0 0
92 2 1.4677648225500119e+00 2.0050254468707718e+00 7.9514570200776493e+00 0 0 0
737 2 1.6794434943777492e+01 8.0854292573348232e+00 1.0261138470754510e+01 0 0 0
51 2 4.0955918111128709e+00 2.0033844807513894e+00 6.7982924812876862e+00 0 0 0
52 2 4.5335482060413739e+00 2.0030230499927146e+00 4.3610497710145308e+00 0 0 0
53 2 6.7232319490567134e+00 2.0007566584849710e+00 5.6457190406046021e+00 0 0 0
56 2 5.4123106431777721e+00 4.0332519208012849e+00 6.2255815040249907e+00 0 0 0
57 2 5.8503214292349828e+00 4.0328712802116575e+00 3.7886168608561115e+00 0 0 0
62 2 7.6022327876342182e+00 4.0310558621018648e+00 7.5117204202158954e+00 0 0 0
96 2 6.2853113075076426e+00 2.0012751525623700e+00 8.0828600303329559e+00 0 0 0
59 2 8.9126755365474306e+00 1.9975912774102369e+00 6.9310241790728080e+00 0 0 0
60 2 9.3505254771740507e+00 1.9968345784709061e+00 4.4940652303458686e+00 0 0 0
61 2 8.0401727596536023e+00 4.0305219209553771e+00 5.0749549241694112e+00 0 0 0
63 2 1.0229553779048389e+01 4.0273072256126730e+00 6.3625240655110034e+00 0 0 0
576 2 1.0667357427443710e+01 4.0265448313666861e+00 3.9261091955132441e+00 0 0 0
605 2 1.1539509111517267e+01 1.9923625235489868e+00 5.7804973292055770e+00 0 0 0
604 2 1.3727933951411378e+01 1.9866485617022813e+00 7.0682890487507439e+00 0 0 0
606 2 1.4165544399879190e+01 1.9853505870829600e+00 4.6319387568438328e+00 0 0 0
607 2 1.2855868713005561e+01 4.0220986098081069e+00 5.2158243189303617e+00 0 0 0
608 2 1.2418233193134604e+01 4.0230760496038327e+00 7.6518184647989456e+00 0 0 0
609 2 1.5043337940525300e+01 4.0165090890317119e+00 6.5080926131244281e+00 0 0 0
615 2 1.5480682453994046e+01 4.0152517291732694e+00 4.0728207103687781e+00 0 0 0
65 2 1.9097267318972526e+00 6.0659618326107347e+00 5.5182523557627201e+00 0 0 0
69 2 3.2255713478303627e+00 8.0962019976805806e+00 4.9440904796603231e+00 0 0 0
70 2 2.7873903189793334e+00 8.0962931864587659e+00 7.3809923182827823e+00 0 0 0
91 2 1.4715797272370665e+00 6.0660889950937351e+00 7.9553216299366332e+00 0 0 0
66 2 4.1003724311185366e+00 6.0651046596173419e+00 6.8038808713969745e+00 0 0 0
67 2 4.5384776670142220e+00 6.0648828168984208e+00 4.3669792897954993e+00 0 0 0
68 2 6.7288151705630401e+00 6.0634744930570736e+00 5.6536568222697561e+00 0 0 0
71 2 5.4163230994571334e+00 8.0955840489263338e+00 6.2307273909410421e+00 0 0 0
72 2 5.8544340535885482e+00 8.0954232484395909e+00 3.7940675093928742e+00 0 0 0
85 2 6.2907767082401858e+00 6.0637992991572869e+00 8.0903507929198248e+00 0 0 0
73 2 8.9186947463431920e+00 6.0614752491277510e+00 6.9416191679460084e+00 0 0 0
74 2 9.3565967091276807e+00 6.0609926768400841e+00 4.5052908428547740e+00 0 0 0
75 2 8.0446906615996721e+00 8.0944066388814484e+00 5.0822035128296132e+00 0 0 0
76 2 7.6066842964964092e+00 8.0946411872580040e+00 7.5185684057632622e+00 0 0 0
77 2 1.0234246358315081e+01 8.0929717797381375e+00 6.3721500903770059e+00 0 0 0
534 2 1.0672044262099359e+01 8.0926268089616826e+00 3.9362975454287379e+00 0 0 0
641 2 1.1545580592588109e+01 6.0581212248440162e+00 5.7954932589391372e+00 0 0 0
640 2 1.3733428631000027e+01 6.0543960914960087e+00 7.0883627257916899e+00 0 0 0
642 2 1.4170830013295921e+01 6.0535441355966855e+00 4.6532261972254387e+00 0 0 0
643 2 1.2860269048020111e+01 8.0905890112857932e+00 5.2293637124698309e+00 0 0 0
644 2 1.2422735302506474e+01 8.0910387527436622e+00 7.6646082456600979e+00 0 0 0
645 2 1.5046835126749675e+01 8.0879741296398233e+00 6.5261059063262055e+00 0 0 0
651 2 1.5483887825670450e+01 8.0873898545528107e+00 4.0918922460931269e+00 0 0 0
34 2 1.4734665782597123e+00 1.0126890472333201e+01 7.9572708677446489e+00 0 0 0
79 2 1.9116950701485602e+00 1.0126896964217160e+01 5.5203254308686160e+00 0 0 0
612 2 1.6353089873349234e+01 1.9781080792718384e+00 5.9220702562098602e+00 0 0 0
629 2 1.2861231199530184e+01 1.0125619148309754e+01 1.1967613493296906e+01 0 0 0
42 2 6.2934621705593461e+00 1.0126772131113775e+01 8.0940529446494569e+00 0 0 0
82 2 4.1027273252670229e+00 1.0126882355316546e+01 6.8066673302059479e+00 0 0 0
83 2 4.5409043101547182e+00 1.0126868429564533e+01 4.3699306671952645e+00 0 0 0
84 2 6.7315567326334147e+00 1.0126736583460481e+01 5.6575728885238243e+00 0 0 0
626 2 1.3298672093845465e+01 1.0125487405380063e+01 9.5326780159565967e+00 0 0 0
601 2 1.5921475935214028e+01 1.0124537051303621e+01 8.3975093058075352e+00 0 0 0
88 2 8.9216412156203511e+00 1.0126479743194903e+01 6.9467958481749443e+00 0 0 0
89 2 9.3595636831990223e+00 1.0126411136775770e+01 4.5107637077071452e+00 0 0 0
596 2 1.5484577592909702e+01 1.0124710558224542e+01 1.0831282401909109e+01 0 0 0
575 2 1.0673079442147028e+01 1.0126164768197071e+01 1.0673840843781987e+01 0 0 0
574 2 1.1110828855963886e+01 1.0126071618457779e+01 8.2382201163026263e+00 0 0 0
677 2 1.1548524083662384e+01 1.0125972270698023e+01 5.8027209856356698e+00 0 0 0
78 2 8.0456922658124466e+00 1.0126597472801635e+01 1.1819118212571972e+01 0 0 0
676 2 1.3736036246539786e+01 1.0125354240291239e+01 7.0979098105923049e+00 0 0 0
678 2 1.4173309429502174e+01 1.0125215996768532e+01 4.6633168583954774e+00 0 0 0
64 2 8.4836823649900257e+00 1.0126541472575118e+01 9.3829158155099375e+00 0 0 0
103 2 5.8553478144383826e+00 1.0126802360194505e+01 1.0530591917215704e+01 0 0 0
41 2 3.6645388326586423e+00 1.0126892006124427e+01 9.2434455357609941e+00 0 0 0
16 2 3.2263404386343431e+00 1.0126897879841094e+01 1.1680262338228731e+01 0 0 0
3 2 1.9079336945940697e+00 4.0354208150037234e+00 1.2251689129212116e+01 0 0 0
93 2 2.3460015153059937e+00 4.0352236552644598e+00 9.8145235147755265e+00 0 0 0
94 2 3.2196644965384129e+00 2.0040259460133929e+00 1.1672824959218030e+01 0 0 0
721 2 1.6792302436759499e+01 4.0111923801179143e+00 1.0238482616663930e+01 0 0 0
4180 2 1.0297833609225064e+00 2.0052226912871789e+00 1.0388790467903599e+01 1 0 0
10 2 6.7263065237825757e+00 4.0320227336118482e+00 1.2385385559458483e+01 0 0 0
95 2 3.6576305447301016e+00 2.0037180702808723e+00 9.2355512722841731e+00 0 0 0
97 2 5.8473822008360434e+00 2.0017588356247140e+00 1.0520024292704830e+01 0 0 0
98 2 4.5362605125301734e+00 4.0339310845967216e+00 1.1099604856770572e+01 0 0 0
99 2 4.9742901260848971e+00 4.0336044465480363e+00 8.6625783082340018e+00 0 0 0
104 2 7.1642772279221534e+00 4.0315549290637414e+00 9.9485317792914056e+00 0 0 0
100 2 8.0369363112839611e+00 1.9989720600510006e+00 1.1805047350226964e+01 0 0 0
101 2 8.4748126255830858e+00 1.9983019253520391e+00 9.3680191015006571e+00 0 0 0
102 2 9.7917236472356119e+00 4.0280245512262836e+00 8.7990083500931267e+00 0 0 0
105 2 9.3538707755225090e+00 4.0287016702589353e+00 1.1235557480967529e+01 0 0 0
509 2 1.1542861727076389e+01 4.0248894777030735e+00 1.2524093444267608e+01 0 0 0
528 2 1.0663973388713817e+01 1.9942849222582251e+00 1.0654022419788658e+01 0 0 0
533 2 1.1101750152951038e+01 1.9933492884663775e+00 8.2172343227890856e+00 0 0 0
712 2 1.2852640549755195e+01 1.9890704192937947e+00 1.1941215833255763e+01 0 0 0
713 2 1.3290297466584986e+01 1.9878839011592488e+00 9.5047162496821045e+00 0 0 0
714 2 1.1980562321822882e+01 4.0240036992522423e+00 1.0087910492120596e+01 0 0 0
715 2 1.4168472663022122e+01 4.0188708158042532e+00 1.1379057365532836e+01 0 0 0
716 2 1.4605925344816908e+01 4.0177129218813432e+00 8.9435059802574699e+00 0 0 0
718 2 1.5915629817153244e+01 1.9796454487709123e+00 8.3579624127139667e+00 0 0 0
719 2 1.5478144305364223e+01 1.9811294715119847e+00 1.0793964083261683e+01 0 0 0
19 2 1.9110076872667032e+00 8.0964466037053580e+00 1.2254886985230797e+01 0 0 0
87 2 3.2241358256640735e+00 6.0654942999516246e+00 1.1677781926913983e+01 0 0 0
90 2 2.3492021594024930e+00 8.0963744257087331e+00 9.8179252676831936e+00 0 0 0
26 2 6.7306007124897498e+00 8.0950604292263932e+00 1.2391496668107582e+01 0 0 0
40 2 7.1686533961007717e+00 8.0948584976020754e+00 9.9550010204253958e+00 0 0 0
49 2 4.9781970238413304e+00 8.0957310518895085e+00 8.6674352625577988e+00 0 0 0
80 2 4.5400578089822758e+00 8.0958652987245454e+00 1.1104187785615078e+01 0 0 0
81 2 5.8527228798733697e+00 6.0641006995849924e+00 1.0527092538431980e+01 0 0 0
86 2 3.6622582102294463e+00 6.0653079878357561e+00 9.2408159169854702e+00 0 0 0
35 2 9.7964045109628408e+00 8.0932951028766009e+00 8.8081030120062245e+00 0 0 0
39 2 9.3585257684061052e+00 8.0935986198198524e+00 1.1244150543821306e+01 0 0 0
47 2 8.4807655867059193e+00 6.0619269485057901e+00 9.3780197966739838e+00 0 0 0
48 2 8.0428124685952405e+00 6.0623508511179782e+00 1.1814487751458241e+01 0 0 0
524 2 1.0670095066626457e+01 6.0593623873736115e+00 1.0667374452228369e+01 0 0 0
525 2 1.1107857145976290e+01 6.0587593084512505e+00 8.2313831970160809e+00 0 0 0
542 2 1.1547489459046856e+01 8.0918729040230364e+00 1.2535506762519416e+01 0 0 0
741 2 1.5482564519881933e+01 6.0507414093634102e+00 1.0819351584529610e+01 0 0 0
742 2 1.5919689525930664e+01 6.0497396570878665e+00 8.3848930808815823e+00 0 0 0
744 2 1.2858439576714382e+01 6.0559872906302514e+00 1.1959073881493326e+01 0 0 0
745 2 1.3295958972279253e+01 6.0552090324070731e+00 9.5236476984198237e+00 0 0 0
746 2 1.1985138238583865e+01 8.0914659766860346e+00 1.0099991988491173e+01 0 0 0
747 2 1.4172425492040022e+01 8.0890838080376408e+00 1.1395123083856770e+01 0 0 0
748 2 1.4609673122372199e+01 8.0885367884268202e+00 8.9605182333352484e+00 0 0 0
577 2 1.6794876230659209e+01 1.0124204127562830e+01 3.5306913749075246e+00 0 0 0
646 2 1.6793637521313510e+01 6.0476486244380041e+00 3.5165983213901399e+00 0 0 0
610 2 1.6790493421785730e+01 1.9765088794791676e+00 3.4862859701815885e+00 0 0 0
125 2 1.9117470629512141e+00 1.2157332827248821e+01 1.2255707830611096e+01 0 0 0
127 2 2.3499707707646493e+00 1.2157415105073396e+01 9.8187938066431357e+00 0 0 0
4165 2 1.5880112186492124e-01 1.2157032210899025e+01 8.5330392700049380e+00 1 0 0
4149 2 1.5818058053983641e-01 8.0966554889016447e+00 8.5323894373533928e+00 1 0 0
4133 2 1.5562842345926570e-01 4.0360416042225795e+00 8.5299230057386186e+00 1 0 0
4114 2 1.5875431819136321e-01 1.0126854638797729e+01 1.7976668114571079e+00 1 0 0
4098 2 1.5711619499924478e-01 6.0663958850686264e+00 1.7960584150605985e+00 1 0 0
4082 2 1.5381444311979189e-01 2.0055629254784830e+00 1.7928926569582593e+00 1 0 0
4199 2 5.9527401463974872e-01 6.0663051281020426e+00 1.2829522201525512e+01 1 0 0
4102 2 5.9699561169392557e-01 1.0126868978809208e+01 1.2831239508238067e+01 1 0 0
4166 2 5.9704375394818432e-01 1.2157103614919588e+01 6.0960222519269278e+00 1 0 0
4150 2 5.9639310825116587e-01 8.0966146741140985e+00 6.0953323570330671e+00 1 0 0
4134 2 5.9370863191634837e-01 4.0359100254304696e+00 6.0926945568883424e+00 1 0 0
126 2 1.4735175434576655e+00 1.2157253624944003e+01 1.2220586795075274e+00 0 0 0
777 2 1.6795045003084958e+01 1.2163160322612127e+01 1.0266263573255447e+01 0 0 0
122 2 6.2935309007951608e+00 1.2158315560605301e+01 1.3588790424396306e+00 0 0 0
123 2 3.6645974457763653e+00 1.2157680439177771e+01 2.5082481698512562e+00 0 0 0
124 2 4.1027869829584089e+00 1.2157775827798243e+01 7.1473437664364009e-02 0 0 0
119 2 8.4837618190765252e+00 1.2158979925756398e+01 2.6477669796513599e+00 0 0 0
120 2 8.9217197047332455e+00 1.2159129084262023e+01 2.1165210188953057e-01 0 0 0
794 2 1.1110918188904659e+01 1.2159984048535723e+01 1.5031081925127361e+00 0 0 0
792 2 1.6358375523911082e+01 1.2162872875542677e+01 1.2699538589280801e+01 0 0 0
795 2 1.5921589405143752e+01 1.2162604031795613e+01 1.6624783400506973e+00 0 0 0
796 2 1.3298775640590316e+01 1.2161038346693434e+01 2.7976036322937996e+00 0 0 0
798 2 1.3736135636302290e+01 1.2161267304854892e+01 3.6283938117838727e-01 0 0 0
116 2 2.7881879102347633e+00 1.2157500434341017e+01 7.3819108801245532e+00 0 0 0
117 2 3.2263973025340436e+00 1.2157588800260669e+01 4.9450615067904478e+00 0 0 0
773 2 1.4610619869740351e+01 1.2161759181050540e+01 8.9644440108300589e+00 0 0 0
772 2 1.4173421082653604e+01 1.2161503388750555e+01 1.1398843440609072e+01 0 0 0
771 2 1.1986254589911921e+01 1.2160373329583676e+01 1.0102840708682237e+01 0 0 0
114 2 5.8554156032554623e+00 1.2158199109935353e+01 3.7954134903301542e+00 0 0 0
115 2 5.4172813208580086e+00 1.2158087123236964e+01 6.2320027500718380e+00 0 0 0
111 2 1.0235375499084611e+01 1.2159621617794745e+01 6.3744498944421375e+00 0 0 0
112 2 7.6077488115286922e+00 1.2158697747464970e+01 7.5202366977324573e+00 0 0 0
797 2 1.1548613204176446e+01 1.2160173673495040e+01 1.2538205798729646e+01 0 0 0
113 2 8.0457708812341586e+00 1.2158836299272112e+01 5.0839634848418633e+00 0 0 0
750 2 1.0673172230392327e+01 1.2159800384855506e+01 3.9387227993595388e+00 0 0 0
128 2 9.3596435556872244e+00 1.2159285107543718e+01 1.1246216620336986e+01 0 0 0
108 2 9.7975306675780089e+00 1.2159449302023539e+01 8.8102831345272463e+00 0 0 0
765 2 1.5484703661734665e+01 1.2162326110628982e+01 4.0962496187590185e+00 0 0 0
766 2 1.5047715976098631e+01 1.2162038158536550e+01 6.5302427939853649e+00 0 0 0
768 2 1.2861342447312570e+01 1.2160810135589044e+01 5.2325317993168712e+00 0 0 0
767 2 1.2423834163330067e+01 1.2160586228527375e+01 7.6676135016110223e+00 0 0 0
109 2 4.5409649373901706e+00 1.2157875386525051e+01 1.1105332081219064e+01 0 0 0
110 2 4.9791302916362019e+00 1.2157979205356957e+01 8.6686434089661013e+00 0 0 0
118 2 7.1696992215587487e+00 1.2158564572614518e+01 9.9565821096978784e+00 0 0 0
121 2 6.7316258248149605e+00 1.2158437190615928e+01 1.2392995099697009e+01 0 0 0
129 2 2.3493606485628646e+00 1.4187934881385420e+01 3.0828922565145334e+00 0 0 0
130 2 1.4718216613266335e+00 1.6218038097084897e+01 1.2204224637319134e+00 0 0 0
132 2 2.7875531300420042e+00 1.4188101711699284e+01 6.4596815247951100e-01 0 0 0
133 2 5.4165152575295084e+00 1.4189324068309521e+01 1.2966357894213969e+01 0 0 -1
134 2 4.9783846348656766e+00 1.4189091441665699e+01 1.9324621117544754e+00 0 0 0
135 2 4.1006596243577222e+00 1.6219532439703016e+01 6.9069746596434556e-02 0 0 0
136 2 3.6625372127906108e+00 1.6219243874787207e+01 2.5059881057626776e+00 0 0 0
137 2 6.2911096153119201e+00 1.6221263968504172e+01 1.3556357874246665e+00 0 0 0
139 2 7.1688698831438273e+00 1.4190393469852841e+01 3.2200924465515648e+00 0 0 0
140 2 7.6069054958634164e+00 1.4190697266733380e+01 7.8367461667595006e-01 0 0 0
141 2 1.0234505117697704e+01 1.4192889824354326e+01 1.3107949752997868e+01 0 0 -1
142 2 9.7966594180327942e+00 1.4192479893735566e+01 2.0732929332544652e+00 0 0 0
143 2 8.9190910935255037e+00 1.6224102253060877e+01 2.0705243464141920e-01 0 0 0
144 2 8.4811517056061181e+00 1.6223564923947411e+01 2.6434255243753317e+00 0 0 0
887 2 1.1108317841101229e+01 1.6227253347661502e+01 1.4969710730305634e+00 0 0 0
799 2 1.1985434562838256e+01 1.4194758476629827e+01 3.3652825848100827e+00 0 0 0
800 2 1.2423033720026424e+01 1.4195275007432290e+01 9.2991941537068679e-01 0 0 0
801 2 1.5047195596155092e+01 1.4198908126588744e+01 1.3262145199781067e+01 0 0 -1
802 2 1.4610025485013196e+01 1.4198255662920035e+01 2.2259464410788627e+00 0 0 0
803 2 1.3733981573695747e+01 1.6232145041452842e+01 3.5417162992655632e-01 0 0 0
805 2 1.3296501265802458e+01 1.6231249642977708e+01 2.7894185160845311e+00 0 0 0
809 2 1.5920358252886508e+01 1.6237265418511104e+01 1.6509077748068932e+00 0 0 0
146 2 2.3463422268978142e+00 1.8249054030094655e+01 3.0797879432609427e+00 0 0 0
147 2 1.4681482789619593e+00 2.0279060638260390e+01 1.2167837314564651e+00 0 0 0
149 2 2.7844159717957697e+00 1.8249354289039875e+01 6.4266054944028594e-01 0 0 0
4244 2 1.0301554895113518e+00 2.0278780412452694e+01 3.6540974437588423e+00 1 0 0
150 2 5.4127331916373045e+00 1.8251615968235242e+01 1.2961595322791439e+01 0 0 -1
151 2 4.9746994780820204e+00 1.8251178956406260e+01 1.9279740333528272e+00 0 0 0
152 2 4.0960553745599357e+00 2.0281199787656725e+01 6.3762932308411444e-02 0 0 0
153 2 3.6580787662995422e+00 2.0280782853701755e+01 2.5009944218141817e+00 0 0 0
154 2 6.2858582031683587e+00 2.0283725012663563e+01 1.3484887473634886e+00 0 0 0
156 2 7.1647556296754926e+00 1.8253650573916975e+01 3.2140703254634353e+00 0 0 0
157 2 7.6027272203673943e+00 1.8254234776664862e+01 7.7729219059375199e-01 0 0 0
158 2 1.0230150863023907e+01 1.8258490075554846e+01 1.3098918353768584e+01 0 0 -1
159 2 9.7923029519231690e+00 1.8257689775054597e+01 2.0647675612286078e+00 0 0 0
160 2 8.9133467037689726e+00 2.0287907196508684e+01 1.9690151784011509e-01 0 0 0
161 2 8.4754592637306914e+00 2.0287113330080345e+01 2.6338491476388981e+00 0 0 0
886 2 1.1102547474095019e+01 2.0292560384251999e+01 1.4833765839100392e+00 0 0 0
834 2 1.1981243958982137e+01 1.8262134509243658e+01 3.3538991065865478e+00 0 0 0
835 2 1.2418937312776842e+01 1.8263145160149332e+01 9.1785977246767469e-01 0 0 0
836 2 1.5044200557863775e+01 1.8270205440534983e+01 1.3245066268180244e+01 0 0 -1
837 2 1.4606768793202789e+01 1.8268932763883996e+01 2.2098277615751787e+00 0 0 0
838 2 1.3728922722152282e+01 2.0299737074166572e+01 3.3483424374820070e-01 0 0 0
840 2 1.3291249685579137e+01 2.0298427030574480e+01 2.7711840702516555e+00 0 0 0
844 2 1.5916834401824763e+01 2.0307119682887045e+01 1.6249116777213670e+00 0 0 0
163 2 2.3416301426672370e+00 2.2310369864978501e+01 3.0748795337408605e+00 0 0 0
166 2 2.7795183801616448e+00 2.2310735413263203e+01 6.3743271418540204e-01 0 0 0
4246 2 5.9007229061693589e-01 2.2309133183076380e+01 1.2824714862842216e+01 1 0 0
4262 2 1.0256684334830504e+00 2.4340164053612391e+01 3.6497041143593578e+00 1 0 0
167 2 5.4068199655737104e+00 2.2313510411482866e+01 1.2954067415391986e+01 0 0 -1
168 2 4.9689403632997227e+00 2.2312972086189305e+01 1.9208818928454636e+00 0 0 0
170 2 7.1583081123031178e+00 2.2316024705614485e+01 3.2045318480136165e+00 0 0 0
171 2 7.5961730986569691e+00 2.2316747970951251e+01 7.6717538913489924e-01 0 0 0
4344 2 1.0320991195319056e+00 1.8248262257395908e+01 1.0391284617130969e+01 1 0 0
4326 2 1.0347481299253432e+00 1.4187486577257953e+01 1.0393831686394917e+01 1 0 0
4311 2 5.8788693139800863e-01 2.4339886319389301e+01 6.0873169471186461e+00 1 0 0
172 2 1.0223252669804548e+01 2.2322019377706592e+01 1.3084506934345034e+01 0 0 -1
173 2 9.7854194100822998e+00 2.2321028229172594e+01 2.0511824056742829e+00 0 0 0
4228 2 1.0336640246408779e+00 1.6217838920054110e+01 3.6575007551493970e+00 1 0 0
846 2 1.6354318240773722e+01 2.0308704102510710e+01 1.2659701485486851e+01 0 0 0
811 2 1.6357415238112281e+01 1.6238369285265051e+01 1.2687284341727423e+01 0 0 0
870 2 1.1974501680198092e+01 2.2326515556207003e+01 3.3356203797010640e+00 0 0 0
871 2 1.2412300734400702e+01 2.2327758315837443e+01 8.9846024450964646e-01 0 0 0
872 2 1.5038857616586013e+01 2.2336343965021719e+01 1.3217249139262364e+01 0 0 -1
873 2 1.4601123572192515e+01 2.2334805043915622e+01 2.1836362593131642e+00 0 0 0
971 2 1.6351955152498935e+01 2.2341329281806477e+01 5.9064771264146785e+00 0 0 0
941 2 1.6356126950418414e+01 1.8274397626589064e+01 5.9398590199316459e+00 0 0 0
909 2 1.6358113460706470e+01 1.4201100355406220e+01 5.9602110912099722e+00 0 0 0
177 2 1.9111616613190114e+00 1.4187777137279081e+01 5.5198455664046175e+00 0 0 0
181 2 3.2244066078717877e+00 1.6218972229907727e+01 4.9429382413949474e+00 0 0 0
182 2 2.7862687381141624e+00 1.6218716576263962e+01 7.3799179669253698e+00 0 0 0
218 2 1.4729571528035073e+00 1.4187627861113368e+01 7.9568260358783904e+00 0 0 0
178 2 4.1020832771300846e+00 1.4188662653216403e+01 6.8059862905849098e+00 0 0 0
179 2 4.5402402310852921e+00 1.4188871240449727e+01 4.3692032105876217e+00 0 0 0
180 2 6.7308109235833555e+00 1.4190104575872365e+01 5.6565735550467142e+00 0 0 0
183 2 5.4149677894975454e+00 1.6220510475448922e+01 6.2291219632833945e+00 0 0 0
184 2 5.8530460619452924e+00 1.6220876659174692e+01 3.7923562296473601e+00 0 0 0
188 2 7.6051981403104625e+00 1.6222567712709527e+01 7.5163715300871319e+00 0 0 0
222 2 6.2927304413737852e+00 1.4189830123496364e+01 8.0931139824272567e+00 0 0 0
185 2 8.9208555075115950e+00 1.4191712481700877e+01 6.9454392132096254e+00 0 0 0
186 2 9.3587758234053773e+00 1.4192087705250001e+01 4.5093220831653262e+00 0 0 0
187 2 8.0431868743685353e+00 1.6223053608850741e+01 5.0798667074980726e+00 0 0 0
189 2 1.0232732279964269e+01 1.6225899876834774e+01 6.3689808061596072e+00 0 0 0
882 2 1.0670543892113489e+01 1.6226562731473962e+01 3.9329286460732527e+00 0 0 0
902 2 1.1547780228467930e+01 1.4194258258796353e+01 5.8007749812727676e+00 0 0 0
901 2 1.3735455355127449e+01 1.4196984642897158e+01 7.0952870631085485e+00 0 0 0
903 2 1.4172778714274575e+01 1.4197614274535651e+01 4.6605288930226498e+00 0 0 0
904 2 1.2858966484692177e+01 1.6230379567255572e+01 5.2248048660665232e+00 0 0 0
905 2 1.2421379542215721e+01 1.6229537511129521e+01 7.6603208401163920e+00 0 0 0
906 2 1.5046018373061546e+01 1.6235109327092747e+01 6.5199351927204150e+00 0 0 0
907 2 1.5483221860001599e+01 1.6236182350121322e+01 4.0853262156964805e+00 0 0 0
191 2 1.9082644609836241e+00 1.8248772602154460e+01 5.5169353824639398e+00 0 0 0
195 2 3.2200984249085303e+00 2.0280391680247856e+01 4.9382423924673295e+00 0 0 0
196 2 2.7821148640092281e+00 2.0280024955763906e+01 7.3755056201377158e+00 0 0 0
233 2 1.4701832356582452e+00 1.8248508985207142e+01 7.9541014019427498e+00 0 0 0
192 2 4.0986064321767310e+00 1.8250380140795823e+01 6.8020064915065825e+00 0 0 0
193 2 4.5366569172046924e+00 1.8250767453520627e+01 4.3649757831506832e+00 0 0 0
194 2 6.7267692483736816e+00 1.8253097131134190e+01 5.6508926923360514e+00 0 0 0
197 2 5.4099551782680271e+00 2.0282622099315805e+01 6.2227710126195150e+00 0 0 0
198 2 5.8479100413987792e+00 2.0283157509387294e+01 3.7856179960726268e+00 0 0 0
202 2 7.5996491821130068e+00 2.0285642469932945e+01 7.5078510105695955e+00 0 0 0
212 2 6.2887693258385298e+00 1.8252573758879166e+01 8.0877562186201182e+00 0 0 0
199 2 8.9165348215192886e+00 1.8256197531254802e+01 6.9378449670813183e+00 0 0 0
200 2 9.3544300243655147e+00 1.8256926114973712e+01 4.5012751630128598e+00 0 0 0
201 2 8.0375593944022317e+00 2.0286358798119032e+01 5.0708331565845519e+00 0 0 0
203 2 1.0226912996353944e+01 2.0290563237007653e+01 6.3568857129253242e+00 0 0 0
881 2 1.0664738474652122e+01 2.0291541060056108e+01 3.9201052402787457e+00 0 0 0
934 2 1.1543516587050751e+01 1.8261159301083811e+01 5.7900313760996651e+00 0 0 0
933 2 1.3731759849385018e+01 1.8266476443290120e+01 7.0809349033321398e+00 0 0 0
935 2 1.4169284500169612e+01 1.8267690415481418e+01 4.6453171976674854e+00 0 0 0
936 2 1.2853547641383203e+01 2.0297155130565748e+01 5.2076107156941687e+00 0 0 0
937 2 1.2415828509859603e+01 2.0295923672196555e+01 7.6441099912489481e+00 0 0 0
938 2 1.5041727048031115e+01 2.0304027021060055e+01 6.4968369911143729e+00 0 0 0
939 2 1.5479294291610804e+01 2.0305564088562289e+01 4.0608199697878558e+00 0 0 0
169 2 1.4658521207117552e+00 2.2309708769026727e+01 7.9497884558570897e+00 0 0 0
205 2 1.9037413435071135e+00 2.2310028066700923e+01 5.5123316048654054e+00 0 0 0
976 2 1.2850079319447429e+01 2.2329052079724992e+01 1.1931916314563969e+01 0 0 0
975 2 1.3287838515560370e+01 2.2330408799280104e+01 9.4948007129315304e+00 0 0 0
162 2 6.2825695660971359e+00 2.2314692936004995e+01 8.0792801897998086e+00 0 0 0
207 2 4.0931757219935170e+00 2.2311990306088823e+01 6.7957188845606247e+00 0 0 0
208 2 4.5310587040160364e+00 2.2312465961215491e+01 4.3582965567954766e+00 0 0 0
209 2 6.7204399240052455e+00 2.2315340043366078e+01 5.6419005020330300e+00 0 0 0
974 2 1.5476552809088451e+01 2.2337937682679211e+01 1.0780295019722645e+01 0 0 0
969 2 1.5914239087112366e+01 2.2339603657072857e+01 8.3433652090932231e+00 0 0 0
876 2 1.0661073735583852e+01 2.2323062641064542e+01 1.0647256348142960e+01 0 0 0
214 2 8.9097330157690422e+00 2.2319180565592973e+01 6.9257719864601768e+00 0 0 0
215 2 9.3475779315315020e+00 2.2320082768922553e+01 4.4884682087336092e+00 0 0 0
229 2 8.0340325840993305e+00 2.2317512958966770e+01 1.1800423210163679e+01 0 0 0
228 2 8.4718853736160238e+00 2.2318323369897378e+01 9.3630911550389015e+00 0 0 0
875 2 1.1098885029765157e+01 2.2324162482592200e+01 8.2100222860876393e+00 0 0 0
965 2 1.1536693599838834e+01 2.2325316000862863e+01 5.7728084195928835e+00 0 0 0
164 2 3.6552914401135985e+00 2.2311544076469758e+01 9.2331480621700202e+00 0 0 0
964 2 1.3725594551938899e+01 2.2331829821967077e+01 7.0577089428434485e+00 0 0 0