LAMMPS data file via write_data, version 11 Aug 2017, timestep = 1000

2389 atoms
2 atom types

0.0000000000000000e+00 8.4563877547995006e+01 xlo xhi
0.0000000000000000e+00 4.8738435450303001e+01 ylo yhi
0.0000000000000000e+00 7.0347872067779997e+00 zlo zhi

Masses

1 12.0107
2 55.845

Atoms # atomic

1 2 1.0388694495032911e+00 1.9657606262771623e+00 2.9282721816788517e+00 0 0 0
2 2 1.0392677777258459e+00 3.9951438237928341e+00 6.4461516379026715e+00 0 0 0
3 2 2.7395415242322532e+00 1.9656483080400167e+00 5.6005666336798965e-01 0 0 1
4 2 1.8891977924088883e+00 1.9656864903486997e+00 5.2615502406945680e+00 0 0 0
8 2 2.7407784415588123e+00 3.9950360377482625e+00 4.0785250882913742e+00 0 0 0
9 2 1.8900147634614164e+00 3.9950717069802097e+00 1.7449344888821170e+00 0 0 0
5 2 3.5899028171692828e+00 1.9656480841315715e+00 2.8933707555101069e+00 0 0 0
6 2 5.2906838792947930e+00 1.9657724945035155e+00 5.2529599598656740e-01 0 0 1
7 2 4.4402831156333207e+00 1.9656884012742761e+00 5.2267109094125335e+00 0 0 0
10 2 3.5915630739178512e+00 3.9950397311220573e+00 6.4121430015651200e+00 0 0 0
11 2 5.2932108574083925e+00 3.9951800556627806e+00 4.0447035163894798e+00 0 0 0
12 2 4.4423727084091382e+00 3.9950862733548878e+00 1.7110083181868749e+00 0 0 0
13 2 6.1411055717545739e+00 1.9659050366442483e+00 2.8587074825224352e+00 0 0 0
15 2 6.9915472073134355e+00 1.9660922917677515e+00 5.1921668027450059e+00 0 0 0
18 2 6.1440807646879252e+00 3.9953265618480436e+00 6.3784503706693432e+00 0 0 0
20 2 6.9949858748454199e+00 3.9955321525169629e+00 1.6774713368541869e+00 0 0 0
14 2 7.8420089949931473e+00 1.9663416050183777e+00 4.9089574653153462e-01 0 0 1
16 2 8.6924896133814009e+00 1.9666639973551319e+00 2.8244793077943839e+00 0 0 0
17 2 9.5429845184111493e+00 1.9670749361361621e+00 5.1581444416715128e+00 0 0 0
19 2 7.8459289808337349e+00 3.9958049798084772e+00 4.0113516443325494e+00 0 0 0
21 2 8.6969129163988868e+00 3.9961552087285361e+00 6.3453162718034477e+00 0 0 0
22 2 9.5479426043686164e+00 3.9965932139798221e+00 1.6445902383949607e+00 0 0 0
265 2 1.0393495133703567e+01 1.9675898139551544e+00 4.5711684213085235e-01 0 0 1
266 2 1.1244023380592608e+01 1.9682280035217359e+00 2.7909819369692817e+00 0 0 0
270 2 1.0399023225510787e+01 3.9971309227872451e+00 3.9787601298428794e+00 0 0 0
271 2 1.1250159564959485e+01 3.9977866434429323e+00 6.3130550082570540e+00 0 0 0
267 2 1.2945122051795412e+01 1.9700177997695594e+00 4.2432856278162967e-01 0 0 0
268 2 1.2094559556335179e+01 1.9690323534141065e+00 5.1249799964328702e+00 0 0 0
269 2 1.3795729150099811e+01 1.9712125195279613e+00 2.7586128854438083e+00 0 0 0
272 2 1.2952662463333379e+01 3.9994726753571475e+00 3.9472636745998226e+00 0 0 0
273 2 1.2101367036431919e+01 3.9985658916583788e+00 1.6126954650199570e+00 0 0 0
274 2 1.3804078555614964e+01 4.0004737373936186e+00 6.2819581799797293e+00 0 0 0
275 2 1.5497277123607486e+01 1.9739576899797173e+00 3.9268212500182847e-01 0 0 0
276 2 1.4646430800408067e+01 1.9725303548129116e+00 5.0929954864902935e+00 0 0 0
280 2 1.5507402866080685e+01 4.0026370053822555e+00 3.9169016529232703e+00 0 0 0
281 2 1.4655645464096725e+01 4.0015519998488429e+00 1.5819908405766940e+00 0 0 0
23 2 1.0394193163433338e+00 6.0240815079769598e+00 2.9291075593478353e+00 0 0 0
24 2 1.0393301069182697e+00 8.0526816121242746e+00 6.4467011911201588e+00 0 0 0
25 2 2.7415970488569816e+00 6.0239697253972224e+00 5.6195685223828229e-01 0 0 0
26 2 1.8904986637829413e+00 6.0240084784715568e+00 5.2629136532869349e+00 0 0 0
30 2 2.7419635099353799e+00 8.0525528277670464e+00 4.0798841135503530e+00 0 0 0
31 2 1.8906359616949779e+00 8.0526024985023579e+00 1.7458857555927647e+00 0 0 0
27 2 3.5927207471882041e+00 6.0239686295307173e+00 2.8958195818191146e+00 0 0 0
28 2 5.2950684521892377e+00 6.0240961768058101e+00 5.2888961023820025e-01 0 0 0
29 2 4.4438758702466030e+00 6.0240092170598212e+00 5.2297231787109189e+00 0 0 0
32 2 3.5933207123663817e+00 8.0525361868501246e+00 6.4139177240828635e+00 0 0 0
33 2 5.2961560725449086e+00 8.0526186004630400e+00 4.0473402733485546e+00 0 0 0
34 2 4.4447155331194974e+00 8.0525566180017147e+00 1.7132084621764425e+00 0 0 0
35 2 6.1463046101979026e+00 6.0242348040716971e+00 2.8629030768542112e+00 0 0 0
37 2 6.9975904794434811e+00 6.0244313079452274e+00 5.1969869215227487e+00 0 0 0
40 2 6.1476506660036057e+00 8.0527270675957752e+00 6.3815360090760933e+00 0 0 0
42 2 6.9992079030874201e+00 8.0528872022611644e+00 1.6810190770914029e+00 0 0 0
36 2 7.8489325330106459e+00 6.0246926187689391e+00 4.9636528184041434e-01 0 0 0
38 2 8.7003383094659021e+00 6.0250257465629904e+00 2.8306242461974183e+00 0 0 0
39 2 9.5518161673960940e+00 6.0254380942360442e+00 5.1649885077157132e+00 0 0 0
41 2 7.8508370921464481e+00 8.0531041480573755e+00 4.0153748770971998e+00 0 0 0
43 2 8.7025481761231447e+00 8.0533828822057849e+00 6.3498275317638093e+00 0 0 0
44 2 9.5543518811766042e+00 8.0537279281932523e+00 1.6496016160581566e+00 0 0 0
316 2 1.0403375471876419e+01 6.0259378205102099e+00 4.6468389664279391e-01 0 0 0
317 2 1.1255030057826358e+01 6.0265271619889695e+00 2.7992946287133269e+00 0 0 0
321 2 1.0406261314052671e+01 8.0541407153252464e+00 3.9842823372602303e+00 0 0 0
322 2 1.1258290744805208e+01 8.0546203473560070e+00 6.3190931566135866e+00 0 0 0
318 2 1.2958693558159135e+01 6.0279578735335306e+00 4.3414206525880572e-01 0 0 0
319 2 1.2106795485891720e+01 6.0272054963455215e+00 5.1340424094685053e+00 0 0 0
320 2 1.3810745849495387e+01 6.0287724647083563e+00 2.7691744966857623e+00 0 0 0
323 2 1.2962779336311311e+01 8.0557530888417421e+00 3.9543547829994647e+00 0 0 0
324 2 1.2110457599427443e+01 8.0551600679762512e+00 1.6192556577770298e+00 0 0 0
325 2 1.3815271861028855e+01 8.0563878929057520e+00 6.2896127759749820e+00 0 0 0
326 2 1.5515386908993881e+01 6.0305225259634891e+00 4.0490867284007565e-01 0 0 0
327 2 1.4662976470899354e+01 6.0296235476126538e+00 5.1043503690216481e+00 0 0 0
331 2 1.5520825925000301e+01 8.0577535196423611e+00 3.9258870018681917e+00 0 0 0
332 2 1.4667946483099429e+01 8.0570618611937306e+00 1.5902615134242848e+00 0 0 0
45 2 1.0390052880648226e+00 1.0081072615877767e+01 2.9293467708730119e+00 0 0 0
46 2 1.0384518845951554e+00 1.2109397296118107e+01 6.4466113141998331e+00 0 0 0
47 2 2.7418540012887020e+00 1.0080911772266912e+01 5.6270106919977381e-01 0 0 0
48 2 1.8904175939755092e+00 1.0080981040874763e+01 5.2634038600607616e+00 0 0 0
52 2 2.7412589555068525e+00 1.2109189486582631e+01 4.0799644592070541e+00 0 0 0
53 2 1.8898425598471749e+00 1.2109286712986078e+01 1.7458809713221783e+00 0 0 0
49 2 3.5933236767738110e+00 1.0080868285933324e+01 2.8968215443290859e+00 0 0 0
50 2 5.2964005623969710e+00 1.0080874274853452e+01 5.3041979619566781e-01 0 0 0
51 2 4.4448360200643844e+00 1.0080854410896274e+01 5.2309870791261606e+00 0 0 0
54 2 3.5927108857692627e+00 1.2109108806369171e+01 6.4140828418749667e+00 0 0 0
55 2 5.2957621378547728e+00 1.2109011271641917e+01 4.0476709758389369e+00 0 0 0
56 2 4.4442084973109175e+00 1.2109048160818167e+01 1.7134573354475446e+00 0 0 0
57 2 6.1480271497141858e+00 1.0080932172038823e+01 2.8647038068277011e+00 0 0 0
59 2 6.9997261023920929e+00 1.0081032360789035e+01 5.1990619341305919e+00 0 0 0
62 2 6.1473825367425814e+00 1.2109001963584788e+01 6.3819453932443171e+00 0 0 0
64 2 6.9990807921286411e+00 1.2109023992313562e+01 1.6815024968727916e+00 0 0 0
58 2 7.8515080504093184e+00 1.0081178855277209e+01 4.9871738819374156e-01 0 0 0
60 2 8.7033843347800506e+00 1.0081375058521916e+01 2.8332554215259513e+00 0 0 0
61 2 9.5553674246396252e+00 1.0081622705382138e+01 5.1678996485125364e+00 0 0 0
63 2 7.8508682263230645e+00 1.2109080816738960e+01 4.0159261959448971e+00 0 0 0
65 2 8.7027568879070234e+00 1.2109174985279440e+01 6.3504390416642034e+00 0 0 0
66 2 9.5547591365114837e+00 1.2109307990418927e+01 1.6502641978561434e+00 0 0 0
367 2 1.0407470904450527e+01 1.0081922118032519e+01 4.6787391096257691e-01 0 0 0
368 2 1.1259709336043828e+01 1.0082270531519736e+01 2.8027637549367750e+00 0 0 0
372 2 1.0406888009228590e+01 1.2109479906672840e+01 3.9849871895061617e+00 0 0 0
373 2 1.1259156776322287e+01 1.2109690767991912e+01 6.3198326916355354e+00 0 0 0
369 2 1.2964648355074843e+01 1.0083099420326507e+01 4.3819167018147492e-01 0 0 0
370 2 1.2112097232304334e+01 1.0082664631979396e+01 5.1377943604123208e+00 0 0 0
371 2 1.3817376057704745e+01 1.0083571286967775e+01 2.7735472808476112e+00 0 0 0
374 2 1.2964162764011142e+01 1.2110221086255155e+01 3.9551611293315267e+00 0 0 0
375 2 1.2111577816910817e+01 1.2109938483569019e+01 1.6200271736868990e+00 0 0 0
376 2 1.3816925242868548e+01 1.2110534829951286e+01 6.2904641748859893e+00 0 0 0
377 2 1.5523422003781642e+01 1.0084590610865378e+01 4.1005526785776930e-01 0 0 0
378 2 1.4670297288754211e+01 1.0084069969010718e+01 5.1090903250777790e+00 0 0 0
382 2 1.5523028953437439e+01 1.2111244959483734e+01 3.9268754201002798e+00 0 0 0
383 2 1.4669877682223801e+01 1.2110877289007018e+01 1.5911695542473105e+00 0 0 0
277 2 1.6348377272887557e+01 1.9752878030685141e+00 2.7271051892999720e+00 0 0 0
282 2 1.6359320255846409e+01 4.0038017128904047e+00 6.2519606253982660e+00 0 0 0
328 2 1.6368008130974381e+01 6.0314184590257813e+00 2.7404221702747598e+00 0 0 0
333 2 1.6373920266482006e+01 8.0584577317858219e+00 6.2617235592396705e+00 0 0 0
379 2 1.6376760017163896e+01 1.0085126909804018e+01 2.7460421843020866e+00 0 0 0
384 2 1.6376388937151134e+01 1.2111633677034147e+01 6.2628207421616944e+00 0 0 0
2123 2 1.8855375162677035e-01 1.9658692258379873e+00 5.9500528242134321e-01 1 0 0
2126 2 1.8853294510442709e-01 3.9952500256696082e+00 4.1125958307535200e+00 1 0 0
2149 2 1.8835256495418662e-01 6.0241859131699149e+00 5.9531817136072107e-01 1 0 0
2152 2 1.8803796305323317e-01 8.0527870510003545e+00 4.1127476701124861e+00 1 0 0
2107 2 1.8707728503017051e-01 1.2109518372965699e+01 4.1125729172430630e+00 1 0 0
2154 2 1.8760800899757157e-01 1.0081183407725524e+01 5.9530849662212693e-01 1 0 0
67 2 1.0376809606567075e+00 1.4137805705435294e+01 2.9289182845316706e+00 0 0 0
68 2 1.0367097811038219e+00 1.6166447684104362e+01 6.4458462633988773e+00 0 0 0
69 2 2.7401856873334864e+00 1.4137538197884291e+01 5.6209704489852808e-01 0 0 0
70 2 1.8889202835771695e+00 1.4137670341903011e+01 5.2628889263456848e+00 0 0 0
74 2 2.7386611263365013e+00 1.6166111554036245e+01 4.0786859531388160e+00 0 0 0
75 2 1.8876730130530572e+00 1.6166283322597103e+01 1.7448616492793003e+00 0 0 0
71 2 3.5914870501431873e+00 1.4137412071945075e+01 2.8961244186273514e+00 0 0 0
72 2 5.2942386308121039e+00 1.4137190476190240e+01 5.2951783393754914e-01 0 0 0
73 2 4.4428345313970734e+00 1.4137295057276710e+01 5.2301912470971672e+00 0 0 0
76 2 3.5896833696853050e+00 1.6165934672134334e+01 6.4125380892850901e+00 0 0 0
77 2 5.2918690025169131e+00 1.6165576454853927e+01 4.0455629122289629e+00 0 0 0
78 2 4.4407493269732150e+00 1.6165755309236310e+01 1.7116369326860030e+00 0 0 0
79 2 6.1457102713209046e+00 1.4137101861542687e+01 2.8636862301944657e+00 0 0 0
81 2 6.9972607076491009e+00 1.4137032834388050e+01 5.1979170415757405e+00 0 0 0
84 2 6.1430526853083816e+00 1.6165401317196817e+01 6.3795349062924362e+00 0 0 0
86 2 6.9943110774275628e+00 1.6165233452389351e+01 1.6787718782122720e+00 0 0 0
80 2 7.8489015236951278e+00 1.4136986730795803e+01 4.9743114395808724e-01 0 0 0
82 2 8.7006443403815936e+00 1.4136966744112502e+01 2.8318114975813726e+00 0 0 0
83 2 9.5525011093903576e+00 1.4136975457544651e+01 5.1662799731574003e+00 0 0 0
85 2 7.8456553910869831e+00 1.6165076962357151e+01 4.0128544337984131e+00 0 0 0
87 2 8.6970966718205407e+00 1.6164935716200851e+01 6.3470021337364999e+00 0 0 0
88 2 9.5486460469260610e+00 1.6164814186891181e+01 1.6464351952563843e+00 0 0 0
415 2 1.0404483414727506e+01 1.4137014707142548e+01 4.6605971185104361e-01 0 0 0
416 2 1.1256602457823439e+01 1.4137084950587733e+01 2.8007375883757351e+00 0 0 0
420 2 1.0400314737312552e+01 1.6164717213318237e+01 3.9807361478958425e+00 0 0 0
421 2 1.1252112323663995e+01 1.6164648586465372e+01 6.3151273788284747e+00 0 0 0
417 2 1.2961297368943645e+01 1.4137324068341773e+01 4.3569306877249303e-01 0 0 0
418 2 1.2108870403779980e+01 1.4137188607985896e+01 5.1355391691587799e+00 0 0 0
419 2 1.3813892412290199e+01 1.4137490923632226e+01 2.7707923095879630e+00 0 0 0
422 2 1.2956128695794263e+01 1.6164604033539291e+01 3.9494480602512141e+00 0 0 0
423 2 1.2104046366033435e+01 1.6164608235284678e+01 1.6148360542392410e+00 0 0 0
424 2 1.3808365625543397e+01 1.6164634401439088e+01 6.2841941963676948e+00 0 0 0
425 2 1.5519629875390194e+01 1.4137918775457456e+01 4.0676230101406446e-01 0 0 0
426 2 1.4666666409527400e+01 1.4137689592909071e+01 5.1060698248145382e+00 0 0 0
430 2 1.5513330117934954e+01 1.6164806129564919e+01 3.9193857019967004e+00 0 0 0
431 2 1.4660763291152788e+01 1.6164700275964272e+01 1.5843086235070818e+00 0 0 0
89 2 1.0355640432200246e+00 1.8195464812343246e+01 2.9278322704614705e+00 0 0 0
90 2 1.0342793716979586e+00 2.0224981895578168e+01 6.4444699808714931e+00 0 0 0
91 2 2.7367345370702441e+00 1.8195056195311249e+01 5.6018554608516380e-01 0 0 0
92 2 1.8861383753361409e+00 1.8195269433816158e+01 5.2613935663183051e+00 0 0 0
96 2 2.7344794102954242e+00 2.0224502982529291e+01 4.0762148804477123e+00 0 0 0
97 2 1.8843709647517728e+00 2.0224756137478824e+01 1.7429422020513667e+00 0 0 0
93 2 3.5873605830719448e+00 1.8194826861827917e+01 2.8937871803153912e+00 0 0 0
94 2 5.2887360668078811e+00 1.8194328406350888e+01 5.2628848166860054e-01 0 0 0
95 2 4.4380248354683882e+00 1.8194583450656399e+01 5.2274157569963791e+00 0 0 0
98 2 3.5846108958139955e+00 2.0224223449925475e+01 6.4095037376968822e+00 0 0 0
99 2 5.2849700803498418e+00 2.0223591341512805e+01 4.0413532471564864e+00 0 0 0
100 2 4.4347721674895233e+00 2.0223919024755752e+01 1.7080241965488949e+00 0 0 0
101 2 6.1395036350082419e+00 1.8194064820787634e+01 2.8599839109313727e+00 0 0 0
103 2 6.9903369570884291e+00 1.8193796054306898e+01 5.1937190674090257e+00 0 0 0
106 2 6.1352119738504207e+00 2.0223242625421129e+01 6.3747062153016660e+00 0 0 0
108 2 6.9855063788197711e+00 2.0222876526667246e+01 1.6732976321539332e+00 0 0 0
102 2 7.8412458763847974e+00 1.8193526203993152e+01 4.9271111308824989e-01 0 0 0
104 2 8.6922411752585020e+00 1.8193261070905521e+01 2.8265383266236626e+00 0 0 0
105 2 9.5433326099883491e+00 1.8193006271532070e+01 5.1604182102511711e+00 0 0 0
107 2 7.8358612294196961e+00 2.0222496795371708e+01 4.0067037970265975e+00 0 0 0
109 2 8.6862846196201939e+00 2.0222108273393147e+01 6.3401399237608160e+00 0 0 0
110 2 9.5367877605896663e+00 2.0221720288097856e+01 1.6388189525179790e+00 0 0 0
465 2 1.0394529698098482e+01 1.8192768879845882e+01 4.5956921285515939e-01 0 0 0
466 2 1.1245843673595981e+01 1.8192558405902268e+01 2.7935713487733729e+00 0 0 0
470 2 1.0387378763682344e+01 2.0221340870050039e+01 3.9723165734734467e+00 0 0 0
471 2 1.1238064033221395e+01 2.0220980290627612e+01 6.3058489254414525e+00 0 0 0
467 2 1.2948845606114475e+01 1.8192236435450550e+01 4.2701939451285487e-01 0 0 0
468 2 1.2097282422987227e+01 1.8192382870985174e+01 5.1276438726476918e+00 0 0 0
469 2 1.3800547561374408e+01 1.8192140745004679e+01 2.7612774121939010e+00 0 0 0
472 2 1.2939766864406259e+01 2.0220394430538388e+01 3.9382268390392361e+00 0 0 0
473 2 1.2088857621398674e+01 2.0220658194897496e+01 1.6046289658909740e+00 0 0 0
474 2 1.3790769894094490e+01 2.0220156567821515e+01 6.2718938072816499e+00 0 0 0
475 2 1.5504364715268290e+01 1.8192085285698536e+01 3.9537670658038615e-01 0 0 0
476 2 1.4652387465884198e+01 1.8192090014751383e+01 5.0956501628031283e+00 0 0 0
480 2 1.5493130839385692e+01 2.0219916614396183e+01 3.9046261944841341e+00 0 0 0
481 2 1.4641895769677360e+01 2.0220004844031308e+01 1.5708284349475810e+00 0 0 0
111 2 1.0329044510132319e+00 2.2255098369611662e+01 2.9262135521460535e+00 0 0 0
112 2 1.0315037906856801e+00 2.4285879889195030e+01 6.4426775516436132e+00 0 0 0
113 2 2.7319962165221559e+00 2.2254557879850992e+01 5.5726111922577237e-01 0 0 1
114 2 1.8824452836314030e+00 2.2254845733112035e+01 5.2591270570373512e+00 0 0 0
118 2 1.8804580569766709e+00 2.4285607185421192e+01 1.7404333852348493e+00 0 0 0
120 2 2.7294134458018440e+00 2.4285293271605866e+01 4.0729778837629889e+00 0 0 0
115 2 3.5815610612299085e+00 2.2254234893786350e+01 2.8901912449387281e+00 0 0 0
116 2 5.2807504306081352e+00 2.2253485861979442e+01 5.2129460249829573e-01 0 0 1
117 2 4.4311440294056661e+00 2.2253877125863614e+01 5.2231313334805671e+00 0 0 0
119 2 3.5783718136964651e+00 2.4284937820189668e+01 6.4055228579208077e+00 0 0 0
121 2 4.4273345678435074e+00 2.4284539981570152e+01 1.7032801592807638e+00 0 0 0
122 2 5.2763033352198621e+00 2.4284098771979245e+01 4.0358237687828833e+00 0 0 0
123 2 6.1303851420773068e+00 2.2253062101694479e+01 2.8542558752003515e+00 0 0 0
125 2 6.9800532365752588e+00 2.2252607428933580e+01 5.1872288033030163e+00 0 0 0
128 2 6.1252826792298833e+00 2.4283615730087519e+01 6.3683644953833074e+00 0 0 0
129 2 6.9742750724787834e+00 2.4283090827518265e+01 1.6661130327823293e+00 0 0 0
124 2 7.8297630715985802e+00 2.2252126940143711e+01 4.8542479749521134e-01 0 0 1
126 2 8.6795207171169988e+00 2.2251624512834677e+01 2.8184169562979209e+00 0 0 0
127 2 9.5293305970325051e+00 2.2251104283614481e+01 5.1514194258531081e+00 0 0 0
130 2 8.6723133499927396e+00 2.4281920370635820e+01 6.3311654191809907e+00 0 0 0
131 2 7.8232815467068040e+00 2.4282522806676951e+01 3.9986441786324405e+00 0 0 0
132 2 9.5213749804851631e+00 2.4281287298626076e+01 1.6288830310309828e+00 0 0 0
515 2 1.0379207714464986e+01 2.2250582695310083e+01 4.4963903345151685e-01 0 0 1
516 2 1.1229159036737363e+01 2.2250071048613361e+01 2.7826447899814393e+00 0 0 0
520 2 1.1219598668952754e+01 2.4279949601361061e+01 6.2938417997101404e+00 0 0 0
521 2 1.0370460448093070e+01 2.4280619608288443e+01 3.9613757891541872e+00 0 0 0
517 2 1.2929302438879620e+01 2.2249152622083361e+01 4.1386598359868398e-01 0 0 1
518 2 1.2079181666669401e+01 2.2249580177350836e+01 5.1156526439880370e+00 0 0 0
519 2 1.3779539231804174e+01 2.2248848354016541e+01 2.7468181402291223e+00 0 0 0
522 2 1.2068800848311961e+01 2.4279295946827624e+01 1.5914726778185040e+00 0 0 0
523 2 1.3767356489390682e+01 2.4278106490516326e+01 6.2561870141801705e+00 0 0 0
524 2 1.2918031274063043e+01 2.4278649946181019e+01 3.9238561809042070e+00 0 0 0
525 2 1.5480178880906703e+01 2.2248390471722040e+01 3.7803311403317974e-01 0 0 1
526 2 1.4629804452604843e+01 2.2248535738215455e+01 5.0798261699676655e+00 0 0 0
530 2 1.4616856624484020e+01 2.4277878210635791e+01 1.5535070991480870e+00 0 0 0
532 2 1.5466235193696415e+01 2.4277483379714909e+01 3.8857145254837446e+00 0 0 0
427 2 1.6372789872540299e+01 1.4138177419358845e+01 2.7424712963648297e+00 0 0 0
432 2 1.6366071146230468e+01 1.6164952185850179e+01 6.2546651040236068e+00 0 0 0
477 2 1.6356489696524747e+01 1.8192137020087266e+01 2.7300470012563309e+00 0 0 0
482 2 1.6344458971877476e+01 2.0219888684936606e+01 6.2385386523884963e+00 0 0 0
527 2 1.6330622203063111e+01 2.2248337248710008e+01 2.7110360004032228e+00 0 0 0
531 2 1.6315737610916873e+01 2.4277452934804835e+01 6.2177988184899915e+00 0 0 0
2195 2 1.8645810924267892e-01 1.4137941800508379e+01 5.9496496800631571e-01 1 0 0
2198 2 1.8576246745097080e-01 1.6166602617632250e+01 4.1120592143884052e+00 1 0 0
2221 2 1.8500384922499791e-01 1.8195640898435265e+01 5.9428415566995019e-01 1 0 0
2224 2 1.8419881665602134e-01 2.0225179536769943e+01 4.1112207693727241e+00 1 0 0
2179 2 1.8254972301086525e-01 2.4286112309425533e+01 4.1101365372665866e+00 1 0 0
2226 2 1.8336999922232167e-01 2.2255315650048491e+01 5.9330669304754935e-01 1 0 0
133 2 1.0301607961685786e+00 2.6317351638874413e+01 2.9243423780710187e+00 0 0 0
134 2 1.0289849117716108e+00 2.8349493991181546e+01 6.4408546039237660e+00 0 0 0
135 2 1.8785293894266522e+00 2.6317068859418338e+01 5.2565127692848712e+00 0 0 0
137 2 2.7268884911237787e+00 2.6316741964115565e+01 5.5388928384691416e-01 0 0 1
140 2 1.8768073404968399e+00 2.8349214237156392e+01 1.7378873550386136e+00 0 0 0
142 2 2.7246082848210600e+00 2.8348890763784595e+01 4.0696909516736097e+00 0 0 0
136 2 3.5752360860586028e+00 2.6316368709114254e+01 2.8860441812507780e+00 0 0 0
138 2 4.4235731889121599e+00 2.6315948278704099e+01 5.2181869613208640e+00 0 0 0
139 2 5.2718984756053402e+00 2.6315478719106373e+01 5.1552736705623758e-01 0 0 1
141 2 3.5723836228575530e+00 2.8348520338739981e+01 6.4014729067754255e+00 0 0 0
143 2 4.4201253507920599e+00 2.8348098745063922e+01 1.6984432445576034e+00 0 0 0
144 2 5.2678362186025485e+00 2.8347625325807300e+01 4.0301703418954222e+00 0 0 0
145 2 6.1202090152273012e+00 2.6314956077520367e+01 2.8476389913218245e+00 0 0 0
146 2 6.9685120511401735e+00 2.6314382765933889e+01 5.1797295732125415e+00 0 0 0
150 2 6.1155147551462417e+00 2.8347095636189817e+01 6.3618599449299662e+00 0 0 0
151 2 6.9631447132356010e+00 2.8346499654292078e+01 1.6587277381384453e+00 0 0 0
147 2 8.6650866591440447e+00 2.6313071373488018e+01 2.8090482606529781e+00 0 0 0
148 2 7.8168080433926255e+00 2.6313757985512218e+01 4.7700649685309365e-01 0 0 1
149 2 9.5133724891811866e+00 2.6312338896732449e+01 5.1410566193664522e+00 0 0 0
152 2 8.6583203620253553e+00 2.8345125266768648e+01 6.3218909222152275e+00 0 0 0
153 2 7.8107438742731885e+00 2.8345843886247454e+01 3.9903390086030108e+00 0 0 0
154 2 9.5058245851192975e+00 2.8344310456690724e+01 1.6186204562073256e+00 0 0 0
565 2 1.1209946962221281e+01 2.6310723501129949e+01 2.7701580937619004e+00 0 0 0
566 2 1.0361673484140411e+01 2.6311568100116208e+01 4.3822792873628824e-01 0 0 1
570 2 1.1200845332344819e+01 2.8342516850514240e+01 6.2814375446193189e+00 0 0 0
571 2 1.0353316940757813e+01 2.8343434788838270e+01 3.9500828244537098e+00 0 0 0
567 2 1.2058264434666064e+01 2.6309867330709725e+01 5.1020327167159669e+00 0 0 0
568 2 1.3755006153695213e+01 2.6308170962389575e+01 2.7307023003282151e+00 0 0 0
569 2 1.2906669576691966e+01 2.6309052586069665e+01 3.9900227320229953e-01 0 0 1
572 2 1.2048236717448779e+01 2.8341431411839768e+01 1.5779918241528450e+00 0 0 0
573 2 1.3743345342367817e+01 2.8339290159723422e+01 6.2403082114320405e+00 0 0 0
574 2 1.2895664829520600e+01 2.8340298575164745e+01 3.9092849633603053e+00 0 0 0
575 2 1.4603446091844496e+01 2.6307406532507883e+01 5.0623494345114901e+00 0 0 0
577 2 1.5452341136382229e+01 2.6307566041424032e+01 3.5853666132050227e-01 0 0 1
580 2 1.4590698570080804e+01 2.8337951640731234e+01 1.5365457303564778e+00 0 0 0
582 2 1.5438108205933124e+01 2.8336514190954780e+01 3.8677754590867970e+00 0 0 0
155 2 1.0281150303195130e+00 3.0382236723920911e+01 2.9227328447627290e+00 0 0 0
156 2 1.0277260792923739e+00 3.2415453467212430e+01 6.4396623709153920e+00 0 0 0
157 2 1.8754772110696547e+00 3.0381977788176339e+01 5.2542504364908975e+00 0 0 0
159 2 2.7228009356430158e+00 3.0381677021430555e+01 5.5095351896497491e-01 0 0 1
162 2 1.8747615459092903e+00 3.2415234150066730e+01 1.7361695427272013e+00 0 0 0
164 2 2.7217335852016835e+00 3.2414985427949546e+01 4.0674221682751863e+00 0 0 0
158 2 3.5700775952839479e+00 3.0381334187111040e+01 2.8824086963054647e+00 0 0 0
160 2 4.4173068741900918e+00 3.0380943375080331e+01 5.2138201111397624e+00 0 0 0
161 2 5.2644721312774356e+00 3.0380493367666478e+01 5.1039737270595720e-01 0 0 1
163 2 3.5686444947549969e+00 3.2414694333805009e+01 6.3986292648301202e+00 0 0 0
165 2 4.4154896746528856e+00 3.2414364280390842e+01 1.6949870814243579e+00 0 0 0
166 2 5.2622246087080624e+00 3.2413997073114295e+01 4.0260531656320033e+00 0 0 0
167 2 6.1115699886364663e+00 3.0379990477075186e+01 2.8417060988375269e+00 0 0 0
168 2 6.9586150770493793e+00 3.0379426593750583e+01 5.1729432929900625e+00 0 0 0
172 2 6.1088643572080121e+00 3.2413553325841811e+01 6.3570500395672047e+00 0 0 0
173 2 6.9554205169959973e+00 3.2413051071774909e+01 1.6531646753263556e+00 0 0 0
169 2 8.6524342857985825e+00 3.0378042204974026e+01 2.8004409367812255e+00 0 0 0
170 2 7.8055627204736062e+00 3.0378766482114830e+01 4.6933286480116343e-01 0 0 1
171 2 9.4992927195984169e+00 3.0377255697141365e+01 5.1314308093654191e+00 0 0 0
174 2 8.6480787064839646e+00 3.2411815657249626e+01 6.3146155155663068e+00 0 0 0
175 2 7.8018226972160285e+00 3.2412515569647596e+01 3.9839299658162020e+00 0 0 0
176 2 9.4942524315487056e+00 3.2411015055094836e+01 1.6104015593053407e+00 0 0 0
615 2 1.1192610841015609e+01 3.0375227863560475e+01 2.7584825934947110e+00 0 0 0
616 2 1.0345981849126934e+01 3.0376276389389318e+01 4.2758362462663457e-01 0 0 1
620 2 1.1186079870389410e+01 3.2409092011446425e+01 6.2709938836202088e+00 0 0 0
621 2 1.0340311247399329e+01 3.2410263589751203e+01 3.9407207287271926e+00 0 0 0
617 2 1.2039418870285646e+01 3.0374193709606505e+01 5.0891362761524439e+00 0 0 0
618 2 1.3732220433992822e+01 3.0371059680203057e+01 2.7158954104655693e+00 0 0 0
619 2 1.2885840934087724e+01 3.0372703154502638e+01 3.8503826583744905e-01 0 0 1
622 2 1.2031757965278889e+01 3.2407679596332734e+01 1.5664628333553134e+00 0 0 0
623 2 1.3723077593242893e+01 3.2404668769003131e+01 6.2258914806494801e+00 0 0 0
624 2 1.2877809104706747e+01 3.2406798734839747e+01 3.8961855493222659e+00 0 0 0
625 2 1.4579505818055809e+01 3.0369956056214576e+01 5.0460775514819094e+00 0 0 0
627 2 1.5425702512428163e+01 3.0367569556046700e+01 3.4160700784243914e-01 0 0 1
630 2 1.4567847815636823e+01 3.2401644493491716e+01 1.5217774314516623e+00 0 0 0
632 2 1.5415443468542824e+01 3.2401082353253855e+01 3.8506114172176740e+00 0 0 0
177 2 1.0280091273541188e+00 3.4448958643624614e+01 2.9221762799056270e+00 0 0 0
178 2 1.0290355275661227e+00 3.6482500624113335e+01 6.4399149698865576e+00 0 0 0
179 2 1.8748784218956938e+00 3.4448796791480341e+01 5.2533581303966894e+00 0 0 0
181 2 2.7217099522462909e+00 3.4448613338048759e+01 5.4970945666759030e-01 0 0 1
184 2 1.8760349276671417e+00 3.6482400456352401e+01 1.7363324536445988e+00 0 0 0
186 2 2.7229629659514538e+00 3.6482296779262782e+01 4.0674838334671195e+00 0 0 0
180 2 3.5684811502273002e+00 3.4448414877960531e+01 2.8807746818161455e+00 0 0 0
182 2 4.4150641201476271e+00 3.4448185223951469e+01 5.2117724731303623e+00 0 0 0
183 2 5.2616199905561301e+00 3.4447910867936343e+01 5.0791237547426427e-01 0 0 1
185 2 3.5697556977622167e+00 3.6482189526188407e+01 6.3985928249612432e+00 0 0 0
187 2 4.4165869978614749e+00 3.6482078326027711e+01 1.6948307260781799e+00 0 0 0
188 2 5.2632614530827748e+00 3.6481950971885247e+01 4.0257398408786642e+00 0 0 0
189 2 6.1081113223363843e+00 3.4447625183867814e+01 2.8386895740028830e+00 0 0 0
190 2 6.9541476073058694e+00 3.4447272653021294e+01 5.1693624537973824e+00 0 0 0
194 2 6.1095326054130652e+00 3.6481811531758545e+01 6.3566051781740214e+00 0 0 0
195 2 6.9561648517202821e+00 3.6481663076118814e+01 1.6525186262796947e+00 0 0 0
191 2 8.6464486686885351e+00 3.4446388741884974e+01 2.7954515979322778e+00 0 0 0
192 2 7.8002758335878921e+00 3.4446812191365090e+01 4.6517390791265484e-01 0 0 1
193 2 9.4914642724806484e+00 3.4445799708470631e+01 5.1255900010889714e+00 0 0 0
196 2 8.6473710443380227e+00 3.6481238898804797e+01 6.3134645314669360e+00 0 0 0
197 2 7.8024390786959259e+00 3.6481463717751751e+01 3.9829642141845585e+00 0 0 0
198 2 9.4941258083756974e+00 3.6481005259786862e+01 1.6088200804581532e+00 0 0 0
665 2 1.1183085074352473e+01 3.4444295062056746e+01 2.7503688711208572e+00 0 0 0
666 2 1.0336968040801082e+01 3.4444901730383684e+01 4.2097793146494711e-01 0 0 1
670 2 1.1180840896888872e+01 3.6480185654173120e+01 6.2683822374765157e+00 0 0 0
671 2 1.0339861816006620e+01 3.6480610831155410e+01 3.9383198319898529e+00 0 0 0
667 2 1.2026199270789213e+01 3.4443243206731658e+01 5.0796325857016775e+00 0 0 0
668 2 1.3718085905400198e+01 3.4440397682384393e+01 2.7024087107602148e+00 0 0 0
669 2 1.2870663972828380e+01 3.4441111083331414e+01 3.7468604458560950e-01 0 0 1
672 2 1.2029627824101684e+01 3.6479756580026070e+01 1.5626627564006259e+00 0 0 0
673 2 1.3703196873773901e+01 3.6477988320558566e+01 6.2198131353923642e+00 0 0 0
674 2 1.2874738346050403e+01 3.6478788996775840e+01 3.8898978188659585e+00 0 0 0
675 2 1.4557972804256538e+01 3.4438916011858076e+01 5.0304033132927932e+00 0 0 0
677 2 1.5399902300149806e+01 3.4431354956056083e+01 3.2566119165290025e-01 0 0 1
680 2 1.4562187501321732e+01 3.6476691472825422e+01 1.5110791154692291e+00 0 0 0
682 2 1.5406410989866364e+01 3.6474486499732471e+01 3.8318484253910787e+00 0 0 0
576 2 1.6300733592696243e+01 2.6306978886469704e+01 2.6898719690217558e+00 0 0 0
581 2 1.6286999823602798e+01 2.8337968958300895e+01 6.1969949905755097e+00 0 0 0
626 2 1.6271571229129282e+01 3.0363725854800549e+01 2.6736356821968514e+00 0 0 0
631 2 1.6260553693911284e+01 3.2396936696819331e+01 6.1804463947555357e+00 0 0 0
676 2 1.6253319173891139e+01 3.4434110425720682e+01 2.6511224202281438e+00 0 0 0
681 2 1.6196454505374810e+01 3.6472008072034654e+01 6.1636937915042331e+00 0 0 0
2267 2 1.8178485587847604e-01 2.6317592052577758e+01 5.9216802738341290e-01 1 0 0
2270 2 1.8114365021607171e-01 2.8349731891847313e+01 4.1090234381049422e+00 1 0 0
2293 2 1.8072442257401633e-01 3.0382458400823843e+01 5.9119429216586961e-01 1 0 0
2296 2 1.8065235176663919e-01 3.2415645147856402e+01 4.1083369312938718e+00 1 0 0
2298 2 1.8106337586249310e-01 3.4449103936464411e+01 5.9096037044409078e-01 1 0 0
2251 2 1.8202612083152303e-01 3.6482601245937971e+01 4.1086724891485016e+00 1 0 0
199 2 1.0307524288604188e+00 3.8515807784605173e+01 2.9232423090301261e+00 0 0 0
200 2 1.0326806458270212e+00 4.0548670484613517e+01 6.4415763470182306e+00 0 0 0
201 2 1.8780406755741206e+00 3.8515747399474371e+01 5.2546040521480331e+00 0 0 0
203 2 2.7253457977822069e+00 3.8515702475204783e+01 5.5114667176650489e-01 0 0 1
206 2 1.8804471206142803e+00 4.0548621260911489e+01 1.7383974903084234e+00 0 0 0
208 2 2.7282012362889185e+00 4.0548587343405181e+01 4.0699870747984450e+00 0 0 0
202 2 3.5726185404198705e+00 3.8515658700220385e+01 2.8824206744988050e+00 0 0 0