LAMMPS data file via write_data, version 11 Aug 2017, timestep = 1000

4676 atoms
2 atom types

0.0000000000000000e+00 8.5726322154464000e+01 xlo xhi
0.0000000000000000e+00 4.8738435450303001e+01 ylo yhi
0.0000000000000000e+00 1.3470591938134000e+01 zlo zhi

Masses

1 12.0107
2 55.845

Atoms # atomic

1 2 6.4648928059785360e-01 3.8304752061036260e+00 3.0289472785775956e-01 0 0 0
2 2 1.0863182544470229e+00 3.8276606021976876e+00 2.7538756515237850e+00 0 0 0
3 2 2.3992226450892447e+00 1.7908112513428251e+00 3.3786134532966776e+00 0 0 0
4 2 1.9592739437962361e+00 1.7934619814783128e+00 9.2759983319516393e-01 0 0 0
5 2 4.5953011788689055e+00 1.7786308513022153e+00 2.1663177760975616e+00 0 0 0
7 2 5.4828494129639367e+00 3.8038257563672335e+00 3.2622344800037523e-01 0 0 0
8 2 3.7235534674996851e+00 3.8128091997978766e+00 3.9906380570369260e+00 0 0 0
9 2 3.2841050755265506e+00 3.8145816306322948e+00 1.5400000270785512e+00 0 0 0
10 2 7.2321225699502527e+00 1.7657088312808344e+00 3.4051401380244646e+00 0 0 0
11 2 6.7921085108692285e+00 1.7699264193163604e+00 9.5429998705306984e-01 0 0 0
14 2 5.9231258454386131e+00 3.8004677234653483e+00 2.7770630139618264e+00 0 0 0
12 2 9.4306479263773628e+00 1.7597628754665882e+00 2.1933706123016723e+00 0 0 0
15 2 8.5635286476850041e+00 3.7894273219745656e+00 4.0142513074796655e+00 0 0 0
16 2 8.1238567869539526e+00 3.7913080304113373e+00 1.5635115803437143e+00 0 0 0
541 2 1.1630797660248277e+01 1.7563381741113244e+00 9.7997098026399376e-01 0 0 0
544 2 1.0326900705684313e+01 3.7849999956486338e+00 3.4959687805799788e-01 0 0 0
545 2 1.0767135007039656e+01 3.7816491980536089e+00 2.8005209664829991e+00 0 0 0
540 2 1.2069635790037788e+01 1.7527349053084007e+00 3.4305279150185024e+00 0 0 0
542 2 1.4271538571876285e+01 1.7497423360152131e+00 2.2147914715255794e+00 0 0 0
546 2 1.3414181791101388e+01 3.7737178143874344e+00 4.0364381925625805e+00 0 0 0
547 2 1.2973329208296533e+01 3.7763251227346917e+00 1.5858513159946097e+00 0 0 0
550 2 1.5182850888227208e+01 3.7716923972752645e+00 3.7023786431626693e-01 0 0 0
551 2 1.5624188244834546e+01 3.7690328541113525e+00 2.8209370942413550e+00 0 0 0
17 2 6.5353977720875767e-01 7.8847753945111982e+00 2.9537795880848117e-01 0 0 0
18 2 1.0934159917984128e+00 7.8819729831080716e+00 2.7461384301704070e+00 0 0 0
19 2 2.4096630382608093e+00 5.8473485932460054e+00 3.3672492501491762e+00 0 0 0
20 2 1.9699351203373829e+00 5.8497026473468470e+00 9.1651902721090983e-01 0 0 0
21 2 4.6100786224867356e+00 5.8338779556173677e+00 2.1523923521816579e+00 0 0 0
23 2 5.4962061900253820e+00 7.8536447871612172e+00 3.1500811221892672e-01 0 0 0
24 2 3.7339341157373811e+00 7.8651358312140536e+00 3.9812110884343475e+00 0 0 0
25 2 3.2940329403009176e+00 7.8672642734559259e+00 1.5304849040262523e+00 0 0 0
26 2 5.9367556022972057e+00 7.8508322760257530e+00 2.7658246860306144e+00 0 0 0
27 2 7.2523092407054532e+00 5.8199641770687380e+00 3.3884567401686638e+00 0 0 0
28 2 6.8119978749676537e+00 5.8223262966169367e+00 9.3767070814032805e-01 0 0 0
29 2 9.4571633723952218e+00 5.8094709326917053e+00 2.1739362610671922e+00 0 0 0
31 2 8.5829114995990174e+00 7.8353595138154120e+00 4.0016291131958956e+00 0 0 0
32 2 8.1417620285530194e+00 7.8378665396171376e+00 1.5507148932783670e+00 0 0 0
576 2 1.1665113560355877e+01 5.8010633200899404e+00 9.5937084129784977e-01 0 0 0
579 2 1.0349784725087648e+01 7.8261874654613415e+00 3.3593331199256715e-01 0 0 0
580 2 1.0791637850752126e+01 7.8231003247775233e+00 2.7870250236432237e+00 0 0 0
575 2 1.2106681513606226e+01 5.7982302105292938e+00 3.4103212155188176e+00 0 0 0
577 2 1.4319249358216275e+01 5.7904366904005382e+00 2.1959255069748447e+00 0 0 0
581 2 1.3447383269110432e+01 7.8090324778079205e+00 4.0243179972648893e+00 0 0 0
582 2 1.3004461089863637e+01 7.8119418953581610e+00 1.5730701911188723e+00 0 0 0
586 2 1.5222426645196665e+01 7.8009202223953311e+00 3.6016598507134862e-01 0 0 0
587 2 1.5666416280678838e+01 7.7977450144722216e+00 2.8117766809110538e+00 0 0 0
33 2 6.5655949856655349e-01 1.1936395933672863e+01 2.9246722145210274e-01 0 0 0
34 2 1.0965614846211831e+00 1.1933183169225458e+01 2.7432965627945123e+00 0 0 0
35 2 2.4159553080294880e+00 9.8985150726060969e+00 3.3614954305180085e+00 0 0 0
36 2 1.9759088634911954e+00 9.9013194501745794e+00 9.1072199192820547e-01 0 0 0
37 2 4.6182310780154463e+00 9.8827965336553234e+00 2.1456945311449367e+00 0 0 0
39 2 5.5010141693515724e+00 1.1899394701808928e+01 3.1189542440932988e-01 0 0 0
40 2 3.7382560295570508e+00 1.1913119789369293e+01 3.9783202523983170e+00 0 0 0
41 2 3.2978941177449439e+00 1.1916269976284683e+01 1.5274178957603088e+00 0 0 0
42 2 5.9418606977389690e+00 1.1895955771456080e+01 2.7628862164489210e+00 0 0 0
43 2 7.2636464500929989e+00 9.8646426692642226e+00 3.3811927794964758e+00 0 0 0
44 2 6.8225663570912731e+00 9.8676710881710932e+00 9.3024447214928974e-01 0 0 0
45 2 9.4714300480533371e+00 9.8497322099840616e+00 2.1664277051116323e+00 0 0 0
47 2 8.5895141224991924e+00 1.1875373280953150e+01 3.9992407979783486e+00 0 0 0
48 2 8.1479695759981610e+00 1.1878830231898043e+01 1.5480696739366733e+00 0 0 0
612 2 1.1682971278148695e+01 9.8353173385218877e+00 9.5254175268068297e-01 0 0 0
615 2 1.0357338442125696e+01 1.1861657954248946e+01 3.3416417553502342e-01 0 0 0
616 2 1.0799633208500872e+01 1.1857871448198697e+01 2.7855945592095415e+00 0 0 0
611 2 1.2125708081623650e+01 9.8319561628177308e+00 3.4039270016919487e+00 0 0 0
613 2 1.4343059621634294e+01 9.8172458012243933e+00 2.1917941509756309e+00 0 0 0
617 2 1.3457480526018950e+01 1.1836208812812753e+01 4.0252933172330323e+00 0 0 0
618 2 1.3014067797267428e+01 1.1840095339720575e+01 1.5734494851155276e+00 0 0 0
622 2 1.5233798213705001e+01 1.1821525433980517e+01 3.6346244555586871e-01 0 0 0
623 2 1.5678388720584550e+01 1.1817359297256855e+01 2.8158558107444813e+00 0 0 0
49 2 6.4142516889636680e-01 1.8031715861086155e+00 7.0426546864913533e+00 0 0 0
50 2 1.5249792986237614e+00 3.8265893566224829e+00 5.2047471008194082e+00 0 0 0
51 2 2.8367812996939401e+00 1.7915984723817253e+00 5.8293868530366106e+00 0 0 0
54 2 3.2737648844361575e+00 1.7914898211415626e+00 8.2815617801393930e+00 0 0 0
55 2 1.9634177678420091e+00 3.8253089586104991e+00 7.6562656987737450e+00 0 0 0
52 2 5.4676351527368041e+00 1.7864478619515569e+00 7.0667738966433049e+00 0 0 0
53 2 5.0344594089224701e+00 1.7773636740844649e+00 4.6167157615820775e+00 0 0 0
56 2 4.1606971389874410e+00 3.8151103331994123e+00 6.4412929642768342e+00 0 0 0
60 2 6.3614862926353455e+00 3.8014378007865752e+00 5.2275158929854078e+00 0 0 0
61 2 6.8008087108830333e+00 3.8034242332078629e+00 7.6790958678658852e+00 0 0 0
57 2 7.6687936980912550e+00 1.7705414639496693e+00 5.8553047811058976e+00 0 0 0
58 2 9.8693691442312552e+00 1.7584295540948420e+00 4.6441089418555341e+00 0 0 0
59 2 8.1077019159582129e+00 1.7767172213621494e+00 8.3077569526921948e+00 0 0 0
62 2 9.0035877503178074e+00 3.7908167666428132e+00 6.4652366698585126e+00 0 0 0
647 2 1.0309149788926126e+01 1.7623709587105381e+00 7.0951697468483363e+00 0 0 0
650 2 1.1207748689996045e+01 3.7804119403377028e+00 5.2512460623455732e+00 0 0 0
651 2 1.1649533683283812e+01 3.7817220068876392e+00 7.7022451404360934e+00 0 0 0
648 2 1.2509523332225875e+01 1.7518584595652669e+00 5.8808154562576869e+00 0 0 0
649 2 1.2952458788435960e+01 1.7554824957102146e+00 8.3317322538941347e+00 0 0 0
652 2 1.3856168978934926e+01 3.7727774861128509e+00 6.4869501379924079e+00 0 0 0
653 2 1.5151977257386871e+01 1.7460425702973483e+00 7.1145401675818309e+00 0 0 0
654 2 1.4711062942262858e+01 1.7472615477832858e+00 4.6648244482772592e+00 0 0 0
657 2 1.6066448329803698e+01 3.7671358359245515e+00 5.2713697362270056e+00 0 0 0
63 2 6.4963144087847224e-01 5.8596468651426408e+00 7.0335577026939564e+00 0 0 0
64 2 1.5328947262827224e+00 7.8799729572288895e+00 5.1969426338603268e+00 0 0 0
65 2 2.8484558427089599e+00 5.8467382815848392e+00 5.8180424792426315e+00 0 0 0
69 2 1.9727641998888017e+00 7.8774456057319586e+00 7.6480478217936696e+00 0 0 0
66 2 5.4892328417403631e+00 5.8325333536826109e+00 7.0542066204532192e+00 0 0 0
67 2 5.0495030749660561e+00 5.8328826653715149e+00 4.6030386652518063e+00 0 0 0
68 2 3.2882734518634709e+00 5.8445767428839135e+00 8.2694997963162233e+00 0 0 0
70 2 4.1739270473213264e+00 7.8634313581387172e+00 6.4321846907860509e+00 0 0 0
74 2 6.3772374203938531e+00 7.8490556062249253e+00 5.2166912610048213e+00 0 0 0
75 2 6.8180488390724712e+00 7.8474473112528180e+00 7.6678219909624321e+00 0 0 0
71 2 7.6925949344716971e+00 5.8194142094753172e+00 5.8393501752922603e+00 0 0 0
72 2 9.8981485867686558e+00 5.8075708626007980e+00 4.6247963607928133e+00 0 0 0
73 2 8.1335011702604376e+00 5.8191098516050559e+00 8.2907079605428606e+00 0 0 0
76 2 9.0243129906091308e+00 7.8337770263627986e+00 6.4526501532482667e+00 0 0 0
678 2 1.0339709628156440e+01 5.8072595916531986e+00 7.0758379419807120e+00 0 0 0
681 2 1.1233757676151644e+01 7.8208006827984775e+00 5.2380801147826554e+00 0 0 0
682 2 1.1676295849110655e+01 7.8193417235868967e+00 7.6892945625832105e+00 0 0 0
679 2 1.2548843703889602e+01 5.7966459549939131e+00 5.8612065488010572e+00 0 0 0
680 2 1.2991686413956208e+01 5.7963920326329390e+00 8.3123477321424417e+00 0 0 0
683 2 1.3890763960970803e+01 7.8068885471463405e+00 6.4756057183508107e+00 0 0 0
684 2 1.5205551185443680e+01 5.7866629615176768e+00 7.0978474744382538e+00 0 0 0
685 2 1.4762047530601468e+01 5.7880272001492257e+00 4.6468545776985906e+00 0 0 0
688 2 1.6110817425432220e+01 7.7950299628051312e+00 5.2633436465416104e+00 0 0 0
77 2 6.5516819784811953e-01 9.9115260349614935e+00 7.0285372818232386e+00 0 0 0
78 2 1.5365786246731084e+00 1.1930126078628829e+01 5.1941873486374392e+00 0 0 0
79 2 2.8560300077159084e+00 9.8959775472182692e+00 5.8123889958328148e+00 0 0 0
83 2 1.9767577733857473e+00 1.1926885742585371e+01 7.6451671429042687e+00 0 0 0
80 2 5.4994039139023068e+00 9.8777237352928466e+00 7.0475815569372031e+00 0 0 0
81 2 5.0587249786009165e+00 9.8801964633844896e+00 4.5965618007495577e+00 0 0 0
82 2 3.2964018893119875e+00 9.8930142615629322e+00 8.2634355663027605e+00 0 0 0
84 2 4.1787287799453985e+00 1.1910058337821463e+01 6.4293123362195814e+00 0 0 0
88 2 6.3827948235993492e+00 1.1892817368497241e+01 5.2139211973245105e+00 0 0 0
89 2 6.8238931361266530e+00 1.1889712006433403e+01 7.6650610032916440e+00 0 0 0
85 2 7.7048608305564175e+00 9.8621542326202594e+00 5.8322085745196297e+00 0 0 0
86 2 9.9133393266739525e+00 9.8467980293519890e+00 4.6175561378225725e+00 0 0 0
87 2 8.1463128133208595e+00 9.8597037440775512e+00 8.2833838907696880e+00 0 0 0
90 2 9.0312264155025499e+00 1.1872202700474748e+01 6.4504889052588670e+00 0 0 0
709 2 1.0355499791022341e+01 9.8443627512149732e+00 7.0687920372286026e+00 0 0 0
712 2 1.1242112451214643e+01 1.1854359413301335e+01 5.2370641922504717e+00 0 0 0
713 2 1.1684819720868949e+01 1.1851104408897911e+01 7.6886559223909163e+00 0 0 0
710 2 1.2568717903140241e+01 9.8290691253910545e+00 5.8553505184148822e+00 0 0 0
711 2 1.3012045574068894e+01 9.8266158689267709e+00 8.3069427257727533e+00 0 0 0
714 2 1.3901137834051074e+01 1.1832596894598147e+01 6.4772415987058061e+00 0 0 0
715 2 1.5231457060429090e+01 9.8109928245364646e+00 7.0954997986615318e+00 0 0 0
716 2 1.4787086623894531e+01 9.8138923844696873e+00 4.6435799681985328e+00 0 0 0
719 2 1.6123167716641991e+01 1.1813350764566927e+01 5.2683418851078629e+00 0 0 0
91 2 1.5190070387229526e+00 1.7976830142363323e+00 1.1946719587890149e+01 0 0 0
92 2 1.0794976061793256e+00 1.8012403052157533e+00 9.4946907549130817e+00 0 0 0
94 2 2.4031712037807984e+00 3.8223551829733058e+00 1.0108072406573411e+01 0 0 0
95 2 2.8437047020003989e+00 3.8183437680070935e+00 1.2559569587484232e+01 0 0 0
6 2 4.1547208956096151e+00 1.7830724682651122e+00 1.3185868785522770e+01 0 0 0
93 2 3.7137260570028396e+00 1.7880173815616336e+00 1.0734087438940332e+01 0 0 0
96 2 4.6006378529285810e+00 3.8128994452613449e+00 8.8934991334050508e+00 0 0 0
97 2 5.0418538379735605e+00 3.8083780689595681e+00 1.1345476736368298e+01 0 0 0
98 2 6.3510008539031082e+00 1.7756148800913578e+00 1.1973345754903784e+01 0 0 0
99 2 5.9087232212377003e+00 1.7823534096092337e+00 9.5207184733743784e+00 0 0 0
101 2 7.2419029614041897e+00 3.8003398294733777e+00 1.0131326395688205e+01 0 0 0
13 2 8.9906710652869481e+00 1.7648332027866722e+00 1.3212715691091724e+01 0 0 0
100 2 8.5493886665969541e+00 1.7712668799090026e+00 1.0760984963976972e+01 0 0 0
102 2 7.6831720041905944e+00 3.7955402298608782e+00 1.2582979086335586e+01 0 0 0
103 2 9.4446474133636329e+00 3.7925448061578377e+00 8.9169920639099089e+00 0 0 0
104 2 9.8860226616667770e+00 3.7893933725496871e+00 1.1368854392046414e+01 0 0 0
740 2 1.1192155281720293e+01 1.7629638942202674e+00 1.1999802721503260e+01 0 0 0
741 2 1.0751332855678317e+01 1.7680663413992437e+00 9.5475661834727212e+00 0 0 0
543 2 1.3833015575718637e+01 1.7535937864456408e+00 1.3235051028595828e+01 0 0 0
742 2 1.3396141239893533e+01 1.7604908678079076e+00 1.0784464496191497e+01 0 0 0
743 2 1.2091933916377466e+01 3.7833784179557872e+00 1.0153978401244466e+01 0 0 0
744 2 1.2533151672904090e+01 3.7803887295800829e+00 1.2605582572886156e+01 0 0 0
745 2 1.4299379994586792e+01 3.7739615700852349e+00 8.9379831898123037e+00 0 0 0
746 2 1.6035669987939414e+01 1.7488424251719901e+00 1.2016940033428623e+01 0 0 0
747 2 1.5594064060514929e+01 1.7470152884944889e+00 9.5650437383122764e+00 0 0 0
750 2 1.4742350179958901e+01 3.7750424448895727e+00 1.1389770646893423e+01 0 0 0
105 2 1.5296651220683788e+00 5.8531761161999043e+00 1.1936151355181172e+01 0 0 0
106 2 1.0893946666773719e+00 5.8567453998031427e+00 9.4849154782168839e+00 0 0 0
108 2 2.4131367988469399e+00 7.8741266027986123e+00 1.0099225443873049e+01 0 0 0
109 2 2.8536756897379574e+00 7.8705079418645907e+00 1.2550251740613982e+01 0 0 0
22 2 4.1697098933667593e+00 5.8370701252712305e+00 1.3172152739102572e+01 0 0 0
107 2 3.7289414496740609e+00 5.8409776795505932e+00 1.0720987149352029e+01 0 0 0
110 2 4.6144720496688576e+00 7.8607522571959985e+00 8.8834192474528422e+00 0 0 0
111 2 5.0553568453015227e+00 7.8572300723489077e+00 1.1334608885337161e+01 0 0 0
112 2 6.3711007227636385e+00 5.8260888587115147e+00 1.1957206769019827e+01 0 0 0
113 2 5.9299787809392033e+00 5.8299656103425752e+00 9.5058042779519081e+00 0 0 0
115 2 7.2592584948928485e+00 7.8446967660304576e+00 1.0119116048915496e+01 0 0 0
30 2 9.0161897637475690e+00 5.8127172814491015e+00 1.3193533667122901e+01 0 0 0
114 2 8.5748780013226309e+00 5.8164512408262672e+00 1.0742255873103362e+01 0 0 0
116 2 7.7005761275013640e+00 7.8411937985423590e+00 1.2570303020843138e+01 0 0 0
117 2 9.4660593429238258e+00 7.8322370121474387e+00 8.9039199900149999e+00 0 0 0
118 2 9.9079463411171140e+00 7.8295243641049206e+00 1.1355285830694097e+01 0 0 0
771 2 1.1223565250581691e+01 5.8044279287772378e+00 1.1978753527981052e+01 0 0 0
772 2 1.0781697949855348e+01 5.8069738172899852e+00 9.5272649078003653e+00 0 0 0
578 2 1.3877083163130832e+01 5.7935855869991810e+00 1.3215405978126949e+01 0 0 0
773 2 1.3434685696486827e+01 5.7960600150946631e+00 1.0763905817574640e+01 0 0 0
774 2 1.2119061536818862e+01 7.8178108330649696e+00 1.0140761410297955e+01 0 0 0
775 2 1.2561772751064584e+01 7.8151427211132294e+00 1.2592284631158128e+01 0 0 0
776 2 1.4334569393504339e+01 7.8054151619350893e+00 8.9271413649625497e+00 0 0 0
777 2 1.6093539666731463e+01 5.7854906361214740e+00 1.2001040106625378e+01 0 0 0
778 2 1.5649593470985716e+01 5.7862715041280728e+00 9.5492473107290827e+00 0 0 0
781 2 1.4778543446269083e+01 7.8037235175278044e+00 1.1378955990718776e+01 0 0 0
119 2 1.5356539356413550e+00 9.9046815570776641e+00 1.1930486153140665e+01 0 0 0
120 2 1.0953376573845452e+00 9.9082146763320971e+00 9.4795449249711634e+00 0 0 0
123 2 2.4171060092327954e+00 1.1923357220450088e+01 1.0096167613023747e+01 0 0 0
124 2 2.8575195156731303e+00 1.1919723098755169e+01 1.2547118260655207e+01 0 0 0
38 2 4.1776929786057950e+00 9.8859745304422688e+00 1.3165440643923560e+01 0 0 0
121 2 3.7370252741095120e+00 9.8895492471191790e+00 1.0714489900675410e+01 0 0 0
122 2 5.9403643060394984e+00 9.8746884389678584e+00 9.4987215283760982e+00 0 0 0
125 2 4.6193886238967048e+00 1.1906718900615440e+01 8.8803873679798482e+00 0 0 0
126 2 5.0601832060698415e+00 1.1903074556802832e+01 1.1331463898902943e+01 0 0 0
127 2 6.3814733580051577e+00 9.8711659475887341e+00 1.1949830870069015e+01 0 0 0
129 2 7.2651595094511165e+00 1.1886277352110033e+01 1.0116277214856797e+01 0 0 0
46 2 9.0296699213448388e+00 9.8531404769830342e+00 1.3185876798012771e+01 0 0 0
128 2 8.5879565687820403e+00 9.8566391400986628e+00 1.0734652455825954e+01 0 0 0
130 2 7.7065303317481613e+00 1.1882550477071147e+01 1.2567488909029935e+01 0 0 0
131 2 9.4731252996818434e+00 1.1869020675279002e+01 8.9018601125878156e+00 0 0 0
132 2 9.9151743460056725e+00 1.1865479041424875e+01 1.1353308668536183e+01 0 0 0
802 2 1.1240392092610103e+01 9.8388058751912784e+00 1.1971691933279478e+01 0 0 0
803 2 1.0797889968049116e+01 9.8419014183890212e+00 9.5202024092774025e+00 0 0 0
614 2 1.3899264749261141e+01 9.8208012141230245e+00 1.3210587770114921e+01 0 0 0
804 2 1.3455599349568820e+01 9.8240333821002928e+00 1.0758734050682900e+01 0 0 0
805 2 1.2127743311974765e+01 1.1847778129268352e+01 1.0140397056595463e+01 0 0 0
806 2 1.2570832053912463e+01 1.1844061991853710e+01 1.2592216855842198e+01 0 0 0
807 2 1.4345099342582937e+01 1.1829159960442814e+01 8.9293748254490488e+00 0 0 0
808 2 1.6121294229953694e+01 9.8053985266237884e+00 1.2000063614979561e+01 0 0 0
809 2 1.5676214282943013e+01 9.8083507449269760e+00 9.5476742529067167e+00 0 0 0
812 2 1.4789348596211287e+01 1.1825541839161554e+01 1.1381680020916663e+01 0 0 0
548 2 1.6915902561159243e+01 1.7456916256422208e+00 3.4481243398498616e+00 0 0 0
549 2 1.6475368244593298e+01 1.7471705407212221e+00 9.9752664651290368e-01 0 0 0
583 2 1.6980784449592477e+01 5.7802736076618295e+00 3.4331927780191300e+00 0 0 0
584 2 1.6536869423128724e+01 5.7828248534440334e+00 9.8196155133151353e-01 0 0 0
619 2 1.7011908566988364e+01 9.7981388072130198e+00 3.4342306022490647e+00 0 0 0
620 2 1.6566537042767724e+01 9.8018245593762003e+00 9.8187638561141588e-01 0 0 0
658 2 1.6509427382517529e+01 3.7661946170668581e+00 7.7218259059967949e+00 0 0 0
689 2 1.6555650971472012e+01 7.7929423189977660e+00 7.7150935588773457e+00 0 0 0
720 2 1.6568270852223176e+01 1.1809559699478610e+01 7.7210327691904235e+00 0 0 0
749 2 1.6952753549767245e+01 3.7662713367525162e+00 1.0172857518860605e+01 0 0 0
780 2 1.7000921670575735e+01 7.7911811161478983e+00 1.0167207629347285e+01 0 0 0
811 2 1.7013821044762860e+01 1.1805739462425803e+01 1.0173975716377015e+01 0 0 0
4089 2 2.0323496258223969e-01 1.8048126377360880e+00 4.5911462783302026e+00 1 0 0
4226 2 2.1647174245806228e-01 1.1939870657775057e+01 1.1312201044540005e+01 1 0 0
4105 2 2.1048373163270356e-01 5.8617403254666032e+00 4.5823949202912875e+00 1 0 0
4121 2 2.1528133460136828e-01 9.9144227607320659e+00 4.5775898916490423e+00 1 0 0
4190 2 2.0644649814725746e-01 3.8341169268999007e+00 1.1322203923835668e+01 1 0 0
4208 2 2.1338898558157199e-01 7.8881710461178711e+00 1.1315076784778158e+01 1 0 0
133 2 6.5548131993431602e-01 1.5988212745133300e+01 2.9381553541168720e-01 0 0 0
134 2 1.0953243513223971e+00 1.5984490192091005e+01 2.7449080314212457e+00 0 0 0
135 2 2.4168450893104780e+00 1.3947906868516407e+01 3.3613164097416761e+00 0 0 0
136 2 1.9767126891321365e+00 1.3951412427750114e+01 9.1033983790747497e-01 0 0 0
137 2 4.6187954805338176e+00 1.3929524355288574e+01 2.1460783234684428e+00 0 0 0
139 2 5.4971601919250404e+00 1.5945388077870490e+01 3.1582616524816615e-01 0 0 0
140 2 3.7356273344700450e+00 1.5961456841262061e+01 3.9813188777217028e+00 0 0 0
141 2 3.2954450464053600e+00 1.5965340537426872e+01 1.5301314308361091e+00 0 0 0
142 2 5.9377188062065214e+00 1.5941275420734543e+01 2.7671217938716208e+00 0 0 0
143 2 7.2638845770942000e+00 1.3906857254318018e+01 3.3826209989148106e+00 0 0 0
144 2 6.8228065749983289e+00 1.3910708993583363e+01 9.3140072952275699e-01 0 0 0
145 2 9.4712027081951025e+00 1.3887256683709998e+01 2.1690019257542992e+00 0 0 0
147 2 8.5831451578570821e+00 1.5915862406738070e+01 4.0052067073878401e+00 0 0 0
148 2 8.1419964108846266e+00 1.5920202243153568e+01 1.5536918316011090e+00 0 0 0
836 2 1.1682072923189429e+01 1.3867005348511766e+01 9.5672417317043390e-01 0 0 0
840 2 1.0790803367584447e+01 1.5893511899228891e+01 2.7931512825830449e+00 0 0 0
1126 2 1.0349033259157929e+01 1.5898163739996475e+01 3.4135905546134976e-01 0 0 0
835 2 1.2124704824441396e+01 1.3862678192730057e+01 3.4085486842247406e+00 0 0 0
837 2 1.4340907549937839e+01 1.3841218282869152e+01 2.1986541352968918e+00 0 0 0
841 2 1.3444668754190001e+01 1.5865161450909959e+01 4.0350006186439229e+00 0 0 0
842 2 1.3001995621941621e+01 1.5870074025733228e+01 1.5827528589031612e+00 0 0 0
846 2 1.5217331027049868e+01 1.5845453057762883e+01 3.7455710850312501e-01 0 0 0
847 2 1.5660897987569836e+01 1.5840304838606956e+01 2.8273149897851155e+00 0 0 0
149 2 6.5083369794780599e-01 2.0043054009148968e+01 2.9840579409131190e-01 0 0 0
150 2 1.0901801663073629e+00 2.0038835498929195e+01 2.7499011105578952e+00 0 0 0
151 2 2.4123568713896888e+00 1.7999180188274238e+01 3.3657517645263790e+00 0 0 0
152 2 1.9725897659240885e+00 1.8003250853641998e+01 9.1442617526359882e-01 0 0 0
157 2 3.2874488836371034e+00 2.0018015305596442e+01 1.5370933775779068e+00 0 0 0
153 2 4.6119978318137909e+00 1.7978432586821494e+01 2.1521421380969223e+00 0 0 0
155 2 5.4858010101941446e+00 1.9995738533437443e+01 3.2473531055342952e-01 0 0 0
156 2 3.7270403731223403e+00 2.0013547651786897e+01 3.9886875419345040e+00 0 0 0
158 2 5.9255786420596399e+00 1.9991179968160370e+01 2.7764032821970859e+00 0 0 0
159 2 7.2536798158582130e+00 1.7951972361799275e+01 3.3907022563184683e+00 0 0 0
160 2 6.8132306876861488e+00 1.7956500326029069e+01 9.3912871667107956e-01 0 0 0
161 2 9.4573475631682822e+00 1.7928539414723296e+01 2.1787276555937765e+00 0 0 0
163 2 1.0327115134883954e+01 1.9942019938759579e+01 3.5400044016997706e-01 0 0 0
164 2 8.5656113291453906e+00 1.9962408586247193e+01 4.0166071570999557e+00 0 0 0
165 2 8.1254967804993541e+00 1.9967309813029825e+01 1.5647727126670117e+00 0 0 0
872 2 1.1663584535781220e+01 1.7903822845824195e+01 9.6799522592583609e-01 0 0 0
875 2 1.0767634738327459e+01 1.9936724041880641e+01 2.8060679243605833e+00 0 0 0
871 2 1.2105152986979347e+01 1.7898652080176920e+01 3.4201245882622726e+00 0 0 0
873 2 1.4315037938663428e+01 1.7872455174668069e+01 2.2113965129035447e+00 0 0 0
876 2 1.3412657612209410e+01 1.9904254910577261e+01 4.0490119430514966e+00 0 0 0
877 2 1.2971614221316308e+01 1.9909840240376120e+01 1.5966380950904471e+00 0 0 0
881 2 1.5177802383531857e+01 1.9881955277055205e+01 3.8860002248739622e-01 0 0 0
882 2 1.5619299467159410e+01 1.9876281241782991e+01 2.8412689206867623e+00 0 0 0
166 2 6.4379843068493003e-01 2.4103415509320815e+01 3.0489176495378750e-01 0 0 0
167 2 1.0824191217812180e+00 2.4098171355025933e+01 2.7568052420830154e+00 0 0 0
168 2 2.4036953670583099e+00 2.2055029484815751e+01 3.3732248860413883e+00 0 0 0
169 2 1.9645889251360344e+00 2.2059716916170437e+01 9.2146085330864280e-01 0 0 0
172 2 3.2758142565020085e+00 2.4076983150306862e+01 1.5462484038786588e+00 0 0 0
170 2 4.5994814415907808e+00 2.2032991979687981e+01 2.1617434132155480e+00 0 0 0
171 2 4.1603216769989206e+00 2.2037391750825410e+01 1.3180546515774298e+01 0 0 -1
173 2 3.7144862877747165e+00 2.4071775533816009e+01 3.9981952985863174e+00 0 0 0
174 2 5.4694712589084222e+00 2.4053361973215022e+01 3.3601955192353350e-01 0 0 0
175 2 5.9074739142114883e+00 2.4049621058762156e+01 2.7876732273682361e+00 0 0 0
176 2 7.2352432021273074e+00 2.2004506541203266e+01 3.4025455720386728e+00 0 0 0
177 2 6.7960369808394034e+00 2.2009180577912844e+01 9.5071432494510211e-01 0 0 0
178 2 9.4331389101978189e+00 2.1978676319571431e+01 2.1923088575357710e+00 0 0 0
179 2 8.9935718671056648e+00 2.1983971581148193e+01 1.3210818265381757e+01 0 0 -1
180 2 8.1022270390786435e+00 2.4023641921661923e+01 1.5782395897953649e+00 0 0 0
181 2 8.5410837763973220e+00 2.4018437728067411e+01 4.0303335948691474e+00 0 0 0
182 2 1.0296698754743822e+01 2.3997401894362291e+01 3.6871997773534915e-01 0 0 0
906 2 1.2071806097676456e+01 2.1946143013507907e+01 3.4348635430357493e+00 0 0 0
907 2 1.1631916430637316e+01 2.1951790969694862e+01 9.8261384609170821e-01 0 0 0
1125 2 1.0735633296312455e+01 2.3991783824111021e+01 2.8209434523997188e+00 0 0 0
908 2 1.4271907062969163e+01 2.1917994162925311e+01 2.2260757864321201e+00 0 0 0
910 2 1.2930258789869642e+01 2.3964140626744076e+01 1.6117059900907975e+00 0 0 0
911 2 1.3369212369802183e+01 2.3958330718494569e+01 4.0639836862754128e+00 0 0 0
912 2 1.5124960214240316e+01 2.3935754477673036e+01 4.0263537866850707e-01 0 0 0
914 2 1.6473149299663657e+01 2.1889466437321932e+01 1.0181387303357869e+00 0 0 0
917 2 1.5563897998775765e+01 2.3930030056129798e+01 2.8549136225736831e+00 0 0 0
184 2 6.5640734963116354e-01 1.3962354570491936e+01 7.0279402125719681e+00 0 0 0
185 2 1.5352209014425213e+00 1.5980796866352136e+01 5.1960418874809333e+00 0 0 0
186 2 2.8570500635812546e+00 1.3944455159421247e+01 5.8123491737239332e+00 0 0 0
190 2 1.9751945638561788e+00 1.5977048548056482e+01 7.6472120862208657e+00 0 0 0
187 2 5.5000701849621434e+00 1.3922370110499438e+01 7.0483299478951125e+00 0 0 0
188 2 5.0593754384030811e+00 1.3925935479800579e+01 4.5971686901529534e+00 0 0 0
189 2 3.2973758527878601e+00 1.3940868233898410e+01 8.2634373199336881e+00 0 0 0
191 2 4.1758915880949070e+00 1.5957590300649901e+01 6.4325583759074512e+00 0 0 0
195 2 6.3783742181481626e+00 1.5937204577029407e+01 5.2184632281766081e+00 0 0 0
196 2 6.8191350997079834e+00 1.5933133622411008e+01 7.6698692388434955e+00 0 0 0
192 2 7.7050850908276161e+00 1.3903151454984028e+01 5.8338985362638081e+00 0 0 0
193 2 9.9130439086502822e+00 1.3883256860149690e+01 4.6204890905217768e+00 0 0 0
194 2 8.1464285293637140e+00 1.3899440029225474e+01 8.2852642657392401e+00 0 0 0
197 2 9.0244247202445234e+00 1.5911571462075385e+01 6.4567916213864738e+00 0 0 0
941 2 1.0355054477723245e+01 1.3879394083624577e+01 7.0720675802523250e+00 0 0 0
944 2 1.1232714166552391e+01 1.5888920486608809e+01 5.2450073451339199e+00 0 0 0
945 2 1.1674799752364953e+01 1.5884366043066914e+01 7.6969693173978362e+00 0 0 0
942 2 1.2567519248517028e+01 1.3858498858578345e+01 5.8604564233984959e+00 0 0 0
943 2 1.3010561277984472e+01 1.3854419881196209e+01 8.3125019374254876e+00 0 0 0
946 2 1.3887517106244369e+01 1.5860314631053987e+01 6.4873587557539878e+00 0 0 0
947 2 1.5228685815876538e+01 1.3832301019908034e+01 7.1035783181892338e+00 0 0 0
948 2 1.4784677333792366e+01 1.3836694173540115e+01 4.6510408688228573e+00 0 0 0
951 2 1.6104611496064294e+01 1.5835190466171559e+01 5.2801942643208122e+00 0 0 0
198 2 6.5354508005002088e-01 1.8015073351982494e+01 7.0310912068031994e+00 0 0 0
199 2 1.5295838864348861e+00 2.0034696430301185e+01 5.2014556324299361e+00 0 0 0
200 2 2.8521866071430204e+00 1.7995136780620172e+01 5.8171243603217180e+00 0 0 0
203 2 3.2920728255032565e+00 1.7991072347332697e+01 8.2685207650908854e+00 0 0 0
204 2 1.9690264689149910e+00 2.0030630058260094e+01 7.6530171130484268e+00 0 0 0
201 2 5.4922949760290196e+00 1.7969844936413928e+01 7.0550900485357042e+00 0 0 0
202 2 5.0521082941352011e+00 1.7974128898447873e+01 4.6035899957663649e+00 0 0 0
205 2 4.1666910859394619e+00 2.0009163209357965e+01 6.4403372072859124e+00 0 0 0
206 2 7.6942359161376936e+00 1.7947410239989548e+01 5.8423329152663799e+00 0 0 0
210 2 6.3654517276268106e+00 1.9986461903116957e+01 5.2281227510378150e+00 0 0 0
211 2 6.8054225874170227e+00 1.9981774748350205e+01 7.6799150801388958e+00 0 0 0
208 2 9.8983487410123363e+00 1.7923699575753968e+01 4.6305566711983266e+00 0 0 0
209 2 8.1348983537870598e+00 1.7942837454195725e+01 8.2940328516823847e+00 0 0 0
212 2 9.0059420370460597e+00 1.9957301227594087e+01 6.4685587629249319e+00 0 0 0
974 2 1.1208255182426422e+01 1.9931413482811401e+01 5.2581829692063504e+00 0 0 0
975 2 1.1648985959161376e+01 1.9926087071915759e+01 7.7103852663256838e+00 0 0 0
1127 2 1.0339506501158322e+01 1.7918819976805054e+01 7.0824778332656440e+00 0 0 0
972 2 1.2546851645447678e+01 1.7893499727053946e+01 5.8723316157500456e+00 0 0 0
973 2 1.2988703153428938e+01 1.7888350785888445e+01 8.3246420265307801e+00 0 0 0
976 2 1.3853795838352390e+01 1.9898681849061898e+01 6.5014633343214063e+00 0 0 0
977 2 1.5199871697687485e+01 1.7861664199645002e+01 7.1166923657264558e+00 0 0 0
978 2 1.4757377989282679e+01 1.7867047215776044e+01 4.6639875617424167e+00 0 0 0
981 2 1.6060881475884653e+01 1.9870597152273710e+01 5.2940181284160914e+00 0 0 0
982 2 1.6502573296267347e+01 1.9864941752487116e+01 7.7468610884430191e+00 0 0 0
213 2 6.4756767522934600e-01 2.2071995792952926e+01 7.0368496881965941e+00 0 0 0
214 2 1.5211988944086587e+00 2.4093670778528242e+01 5.2089524359582660e+00 0 0 0
215 2 1.9598141430385252e+00 2.4089833310281961e+01 7.6608602987640406e+00 0 0 0
216 2 2.8428690194795210e+00 2.2050601734556402e+01 5.8250808938032197e+00 0 0 0
219 2 3.2820139591295212e+00 2.2046384786567057e+01 8.2768805190789774e+00 0 0 0
217 2 5.4780932292506535e+00 2.2023458371947818e+01 7.0655244924572065e+00 0 0 0
218 2 5.0387259097419710e+00 2.2028142302121715e+01 4.6135789964094025e+00 0 0 0
220 2 4.1532979761692745e+00 2.4067242995425602e+01 6.4503305868500922e+00 0 0 0
221 2 6.3470351788096675e+00 2.4043447732178542e+01 5.2400509321116573e+00 0 0 0
222 2 7.6749582284367523e+00 2.1999116387250414e+01 5.8546272596289590e+00 0 0 0
227 2 6.7858434251369557e+00 2.4038788393605063e+01 7.6922891813810210e+00 0 0 0
223 2 1.0312567272149604e+01 2.1967962268092350e+01 7.0965903142638309e+00 0 0 0
224 2 9.8728013887810011e+00 2.1973351058975961e+01 4.6443962159483174e+00 0 0 0
225 2 8.1144663630530172e+00 2.1994208348503022e+01 8.3066938841198521e+00 0 0 0